
    -----------------------------------------------------------------------
          Psi4: An Open-Source Ab Initio Electronic Structure Package
                               Psi4 1.3.2 release

                         Git: Rev {HEAD} ecbda83 


    R. M. Parrish, L. A. Burns, D. G. A. Smith, A. C. Simmonett,
    A. E. DePrince III, E. G. Hohenstein, U. Bozkaya, A. Yu. Sokolov,
    R. Di Remigio, R. M. Richard, J. F. Gonthier, A. M. James,
    H. R. McAlexander, A. Kumar, M. Saitow, X. Wang, B. P. Pritchard,
    P. Verma, H. F. Schaefer III, K. Patkowski, R. A. King, E. F. Valeev,
    F. A. Evangelista, J. M. Turney, T. D. Crawford, and C. D. Sherrill,
    J. Chem. Theory Comput. 13(7) pp 3185--3197 (2017).
    (doi: 10.1021/acs.jctc.7b00174)


                         Additional Contributions by
    P. Kraus, H. Kruse, M. H. Lechner, M. C. Schieber, R. A. Shaw,
    A. Alenaizan, R. Galvelis, Z. L. Glick, S. Lehtola, and J. P. Misiewicz

    -----------------------------------------------------------------------


    Psi4 started on: Tuesday, 23 July 2019 01:20PM

    Process ID: 19595
    Host:       michael-HP
    PSIDATADIR: /home/michael/anaconda3/envs/RESP2/share/psi4
    Memory:     500.0 MiB
    Threads:    4
    
  ==> Input File <==

--------------------------------------------------------------------------
memory 12 gb
molecule mol {
noreorient
nocom
    0 1

}
set basis 6-31G*
optimize('HF')
set basis cc-pV(D+d)Z
optimize('HF')
set basis cc-pV(D+d)Z
optimize('PW6B95')

mol.save_xyz_file('ETH-confermers_opt_1.xyz',True)--------------------------------------------------------------------------

  Memory set to  11.176 GiB by Python driver.

Traceback (most recent call last):
  File "/home/michael/anaconda3/envs/RESP2/bin/psi4", line 287, in <module>
    exec(content)
  File "<string>", line 24, in <module>
  File "/home/michael/anaconda3/envs/RESP2/lib//python3.6/site-packages/psi4/driver/molutil.py", line 250, in geometry
    geom, enable_qm=True, missing_enabled_return_qm='minimal', enable_efp=True, missing_enabled_return_efp='none')
  File "/home/michael/anaconda3/envs/RESP2/lib//python3.6/site-packages/qcelemental/molparse/from_string.py", line 263, in from_string
    **molinit)
  File "/home/michael/anaconda3/envs/RESP2/lib//python3.6/site-packages/qcelemental/molparse/from_arrays.py", line 123, in from_input_arrays
    verbose=1)
  File "/home/michael/anaconda3/envs/RESP2/lib//python3.6/site-packages/qcelemental/molparse/from_arrays.py", line 369, in from_arrays
    fragment_multiplicities=fragment_multiplicities)
  File "/home/michael/anaconda3/envs/RESP2/lib//python3.6/site-packages/qcelemental/molparse/from_arrays.py", line 721, in validate_and_fill_fragments
    len(frs) + 1, len(frc), len(frm)))

qcelemental.exceptions.ValidationError: Dimension mismatch among fragment quantities: sep + 1 (1), chg (0), and mult(0)


Printing out the relevant lines from the Psithon --> Python processed input file:
    
    mol = geometry("""
    noreorient
    nocom
        0 1
--> ""","mol")
    core.IO.set_default_namespace("mol")
    core.set_global_option("BASIS", "6-31G*")
    optimize('HF')
    core.set_global_option("BASIS", "cc-pV(D+d)Z")
    optimize('HF')

    Psi4 stopped on: Tuesday, 23 July 2019 01:20PM
    Psi4 wall time for execution: 0:00:00.03

*** Psi4 encountered an error. Buy a developer more coffee!
*** Resources and help at github.com/psi4/psi4.
