
    -----------------------------------------------------------------------
          Psi4: An Open-Source Ab Initio Electronic Structure Package
                               Psi4 1.3.2 release

                         Git: Rev {HEAD} ecbda83 


    R. M. Parrish, L. A. Burns, D. G. A. Smith, A. C. Simmonett,
    A. E. DePrince III, E. G. Hohenstein, U. Bozkaya, A. Yu. Sokolov,
    R. Di Remigio, R. M. Richard, J. F. Gonthier, A. M. James,
    H. R. McAlexander, A. Kumar, M. Saitow, X. Wang, B. P. Pritchard,
    P. Verma, H. F. Schaefer III, K. Patkowski, R. A. King, E. F. Valeev,
    F. A. Evangelista, J. M. Turney, T. D. Crawford, and C. D. Sherrill,
    J. Chem. Theory Comput. 13(7) pp 3185--3197 (2017).
    (doi: 10.1021/acs.jctc.7b00174)


                         Additional Contributions by
    P. Kraus, H. Kruse, M. H. Lechner, M. C. Schieber, R. A. Shaw,
    A. Alenaizan, R. Galvelis, Z. L. Glick, S. Lehtola, and J. P. Misiewicz

    -----------------------------------------------------------------------


    Psi4 started on: Saturday, 03 August 2019 03:09PM

    Process ID: 4505
    Host:       acer-mis
    PSIDATADIR: /home/mschauperl/anaconda3/envs/RESP2/share/psi4
    Memory:     500.0 MiB
    Threads:    4
    
  ==> Input File <==

--------------------------------------------------------------------------
memory 12 gb
molecule mol {
noreorient
nocom
    0 1
C          1.06160       -0.26810       -0.00060
C          1.91010        0.91260       -0.42200
O          1.51700        1.32360       -1.72280
H          0.00220        0.00170        0.02400
H          1.19690       -1.10690       -0.69130
H          1.35910       -0.62220        0.99210
H          2.96840        0.63610       -0.44460
H          1.77300        1.74990        0.26870
H          2.07870        2.07940       -1.96120

}
set basis 6-31G*
optimize('HF')
set basis cc-pV(D+d)Z
optimize('HF')
set basis cc-pV(D+d)Z
optimize('PW6B95')

mol.save_xyz_file('butanol-liquid/BUT-confermers_opt_2.xyz',True)--------------------------------------------------------------------------

  Memory set to  11.176 GiB by Python driver.
gradient() will perform analytic gradient computation.

*** tstart() called on acer-mis
*** at Sat Aug  3 15:09:12 2019

   => Loading Basis Set <=

    Name: 6-31G*
    Role: ORBITAL
    Keyword: BASIS
    atoms 1-2 entry C          line   111 file /home/mschauperl/anaconda3/envs/RESP2/share/psi4/basis/6-31gs.gbs 
    atoms 3   entry O          line   145 file /home/mschauperl/anaconda3/envs/RESP2/share/psi4/basis/6-31gs.gbs 
    atoms 4-9 entry H          line    44 file /home/mschauperl/anaconda3/envs/RESP2/share/psi4/basis/6-31gs.gbs 


         ---------------------------------------------------------
                                   SCF
               by Justin Turney, Rob Parrish, Andy Simmonett
                          and Daniel G. A. Smith
                              RHF Reference
                        4 Threads,  11444 MiB Core
         ---------------------------------------------------------

  ==> Geometry <==

    Molecular point group: c1
    Full point group: C1

    Geometry (in Angstrom), charge = 0, multiplicity = 1:

       Center              X                  Y                   Z               Mass       
    ------------   -----------------  -----------------  -----------------  -----------------
         C            1.061600000000    -0.268100000000    -0.000600000000    12.000000000000
         C            1.910100000000     0.912600000000    -0.422000000000    12.000000000000
         O            1.517000000000     1.323600000000    -1.722800000000    15.994914619570
         H            0.002200000000     0.001700000000     0.024000000000     1.007825032230
         H            1.196900000000    -1.106900000000    -0.691300000000     1.007825032230
         H            1.359100000000    -0.622200000000     0.992100000000     1.007825032230
         H            2.968400000000     0.636100000000    -0.444600000000     1.007825032230
         H            1.773000000000     1.749900000000     0.268700000000     1.007825032230
         H            2.078700000000     2.079400000000    -1.961200000000     1.007825032230

  Running in c1 symmetry.

  Rotational constants: A =      0.52719  B =      0.08786  C =      0.07990 [cm^-1]
  Rotational constants: A =  15804.82143  B =   2633.99425  C =   2395.40366 [MHz]
  Nuclear repulsion =   81.801433387024161

  Charge       = 0
  Multiplicity = 1
  Electrons    = 26
  Nalpha       = 13
  Nbeta        = 13

  ==> Algorithm <==

  SCF Algorithm Type is DF.
  DIIS enabled.
  MOM disabled.
  Fractional occupation disabled.
  Guess Type is SAD.
  Energy threshold   = 1.00e-08
  Density threshold  = 1.00e-08
  Integral threshold = 0.00e+00

  ==> Primary Basis <==

  Basis Set: 6-31G*
    Blend: 6-31G*
    Number of shells: 30
    Number of basis function: 57
    Number of Cartesian functions: 57
    Spherical Harmonics?: false
    Max angular momentum: 2

   => Loading Basis Set <=

    Name: (6-31G* AUX)
    Role: JKFIT
    Keyword: DF_BASIS_SCF
    atoms 1-2 entry C          line   121 file /home/mschauperl/anaconda3/envs/RESP2/share/psi4/basis/cc-pvdz-jkfit.gbs 
    atoms 3   entry O          line   221 file /home/mschauperl/anaconda3/envs/RESP2/share/psi4/basis/cc-pvdz-jkfit.gbs 
    atoms 4-9 entry H          line    51 file /home/mschauperl/anaconda3/envs/RESP2/share/psi4/basis/cc-pvdz-jkfit.gbs 

  ==> Pre-Iterations <==

   -------------------------------------------------------
    Irrep   Nso     Nmo     Nalpha   Nbeta   Ndocc  Nsocc
   -------------------------------------------------------
     A         57      57       0       0       0       0
   -------------------------------------------------------
    Total      57      57      13      13      13       0
   -------------------------------------------------------

  ==> Integral Setup <==

  DFHelper Memory: AOs need 0.011 GiB; user supplied 8.382 GiB. Using in-core AOs.

  ==> MemDFJK: Density-Fitted J/K Matrices <==

    J tasked:                   Yes
    K tasked:                   Yes
    wK tasked:                   No
    OpenMP threads:               4
    Memory [MiB]:              8583
    Algorithm:                 Core
    Schwarz Cutoff:           1E-12
    Mask sparsity (%):       0.0616
    Fitting Condition:        1E-10

   => Auxiliary Basis Set <=

  Basis Set: (6-31G* AUX)
    Blend: CC-PVDZ-JKFIT
    Number of shells: 126
    Number of basis function: 393
    Number of Cartesian functions: 393
    Spherical Harmonics?: false
    Max angular momentum: 3

  Minimum eigenvalue in the overlap matrix is 5.7882963129E-03.
  Using Symmetric Orthogonalization.

  SCF Guess: Superposition of Atomic Densities via on-the-fly atomic UHF.

  ==> Iterations <==

                           Total Energy        Delta E     RMS |[F,P]|

   @DF-RHF iter SAD:  -153.32238752539686   -1.53322e+02   0.00000e+00 
   @DF-RHF iter   1:  -153.98006851326713   -6.57681e-01   7.35352e-03 DIIS
   @DF-RHF iter   2:  -154.05533520727312   -7.52667e-02   3.84775e-03 DIIS
   @DF-RHF iter   3:  -154.07311866250777   -1.77835e-02   6.33898e-04 DIIS
   @DF-RHF iter   4:  -154.07408455461041   -9.65892e-04   1.95150e-04 DIIS
   @DF-RHF iter   5:  -154.07415560509631   -7.10505e-05   3.96779e-05 DIIS
   @DF-RHF iter   6:  -154.07415964558530   -4.04049e-06   7.24775e-06 DIIS
   @DF-RHF iter   7:  -154.07415982559638   -1.80011e-07   1.71018e-06 DIIS
   @DF-RHF iter   8:  -154.07415983480104   -9.20465e-09   5.57883e-07 DIIS
   @DF-RHF iter   9:  -154.07415983571849   -9.17453e-10   1.21118e-07 DIIS
   @DF-RHF iter  10:  -154.07415983578102   -6.25278e-11   2.56601e-08 DIIS
   @DF-RHF iter  11:  -154.07415983578420   -3.18323e-12   5.32432e-09 DIIS
  Energy and wave function converged.


  ==> Post-Iterations <==

    Orbital Energies [Eh]
    ---------------------

    Doubly Occupied:                                                      

       1A    -20.554573     2A    -11.273457     3A    -11.213992  
       4A     -1.349800     5A     -1.009382     6A     -0.831972  
       7A     -0.690130     8A     -0.645013     9A     -0.567443  
      10A     -0.530190    11A     -0.524020    12A     -0.484039  
      13A     -0.435345  

    Virtual:                                                              

      14A      0.221753    15A      0.263231    16A      0.307235  
      17A      0.310655    18A      0.326041    19A      0.350032  
      20A      0.398739    21A      0.412233    22A      0.726336  
      23A      0.758248    24A      0.789487    25A      0.816256  
      26A      0.915857    27A      0.936050    28A      1.079046  
      29A      1.123925    30A      1.149777    31A      1.169415  
      32A      1.187166    33A      1.194965    34A      1.241813  
      35A      1.284915    36A      1.296381    37A      1.435670  
      38A      1.632315    39A      1.718621    40A      1.749806  
      41A      1.926700    42A      2.042177    43A      2.085796  
      44A      2.232764    45A      2.267632    46A      2.386392  
      47A      2.506995    48A      2.561959    49A      2.682489  
      50A      2.724611    51A      2.736912    52A      2.831262  
      53A      2.975409    54A      3.206474    55A      4.142903  
      56A      4.602577    57A      4.825494  

    Final Occupation by Irrep:
              A 
    DOCC [    13 ]

  @DF-RHF Final Energy:  -154.07415983578420

   => Energetics <=

    Nuclear Repulsion Energy =             81.8014333870241614
    One-Electron Energy =                -371.5324692563880262
    Two-Electron Energy =                 135.6568760335796355
    Total Energy =                       -154.0741598357842008

Computation Completed


Properties will be evaluated at   0.000000,   0.000000,   0.000000 [a0]

Properties computed using the SCF density matrix

  Nuclear Dipole Moment: [e a0]
     X:    74.3503      Y:    32.4916      Z:   -34.2613

  Electronic Dipole Moment: [e a0]
     X:   -73.8364      Y:   -32.2059      Z:    34.6717

  Dipole Moment: [e a0]
     X:     0.5139      Y:     0.2857      Z:     0.4104     Total:     0.7170

  Dipole Moment: [D]
     X:     1.3062      Y:     0.7261      Z:     1.0432     Total:     1.8225


*** tstop() called on acer-mis at Sat Aug  3 15:09:13 2019
Module time:
	user time   =       1.83 seconds =       0.03 minutes
	system time =       0.03 seconds =       0.00 minutes
	total time  =          1 seconds =       0.02 minutes
Total time:
	user time   =       1.83 seconds =       0.03 minutes
	system time =       0.03 seconds =       0.00 minutes
	total time  =          1 seconds =       0.02 minutes

*** tstart() called on acer-mis
*** at Sat Aug  3 15:09:13 2019


         ------------------------------------------------------------
                                   SCF GRAD                          
                          Rob Parrish, Justin Turney,                
                       Andy Simmonett, and Alex Sokolov              
         ------------------------------------------------------------

  ==> Geometry <==

    Molecular point group: c1
    Full point group: C1

    Geometry (in Angstrom), charge = 0, multiplicity = 1:

       Center              X                  Y                   Z               Mass       
    ------------   -----------------  -----------------  -----------------  -----------------
         C            1.061600000000    -0.268100000000    -0.000600000000    12.000000000000
         C            1.910100000000     0.912600000000    -0.422000000000    12.000000000000
         O            1.517000000000     1.323600000000    -1.722800000000    15.994914619570
         H            0.002200000000     0.001700000000     0.024000000000     1.007825032230
         H            1.196900000000    -1.106900000000    -0.691300000000     1.007825032230
         H            1.359100000000    -0.622200000000     0.992100000000     1.007825032230
         H            2.968400000000     0.636100000000    -0.444600000000     1.007825032230
         H            1.773000000000     1.749900000000     0.268700000000     1.007825032230
         H            2.078700000000     2.079400000000    -1.961200000000     1.007825032230

  Nuclear repulsion =   81.801433387024161

  ==> Basis Set <==

  Basis Set: 6-31G*
    Blend: 6-31G*
    Number of shells: 30
    Number of basis function: 57
    Number of Cartesian functions: 57
    Spherical Harmonics?: false
    Max angular momentum: 2

  ==> DFJKGrad: Density-Fitted SCF Gradients <==

    Gradient:                    1
    J tasked:                  Yes
    K tasked:                  Yes
    wK tasked:                  No
    OpenMP threads:              4
    Integrals threads:           4
    Memory [MiB]:             8583
    Schwarz Cutoff:          0E+00
    Fitting Condition:       1E-10

   => Auxiliary Basis Set <=

  Basis Set: (6-31G* AUX)
    Blend: CC-PVDZ-JKFIT
    Number of shells: 126
    Number of basis function: 393
    Number of Cartesian functions: 393
    Spherical Harmonics?: false
    Max angular momentum: 3


  -Total Gradient:
     Atom            X                  Y                   Z
    ------   -----------------  -----------------  -----------------
       1        0.001784207244     0.008648502865    -0.001553397470
       2       -0.000320580107    -0.006425552043     0.009116896404
       3       -0.017455511865    -0.016974370706    -0.002877119062
       4       -0.006721632859     0.001823685743     0.000596482271
       5        0.002215450582    -0.006972023986    -0.002648890763
       6        0.002402840000    -0.004162282739     0.004710095473
       7        0.004428841036    -0.001219425274    -0.004430462449
       8       -0.003004276190     0.005566122297    -0.000005869253
       9        0.016670662158     0.019715343840    -0.002907735147


*** tstop() called on acer-mis at Sat Aug  3 15:09:13 2019
Module time:
	user time   =       1.05 seconds =       0.02 minutes
	system time =       0.02 seconds =       0.00 minutes
	total time  =          0 seconds =       0.00 minutes
Total time:
	user time   =       2.89 seconds =       0.05 minutes
	system time =       0.05 seconds =       0.00 minutes
	total time  =          1 seconds =       0.02 minutes

			-----------------------------------------
			 OPTKING 2.0: for geometry optimizations 
			  - R.A. King,  Bethel University        
			-----------------------------------------

	Internal coordinates to be generated automatically.
	Detected frag 1 with atoms:  1 2 3 4 5 6 7 8 9
	---Fragment 1 Bond Connectivity---
	 1 : 2 4 5 6
	 2 : 1 3 7 8
	 3 : 2 9
	 4 : 1
	 5 : 1
	 6 : 1
	 7 : 2
	 8 : 2
	 9 : 3

	---Fragment 1 Geometry and Gradient---
	 C           2.0061332548       -0.5066355742       -0.0011338357
	 C           3.6095658722        1.7245640621       -0.7974644249
	 O           2.8667145323        2.5012414997       -3.2556201689
	 H           0.0041573975        0.0032125344        0.0453534270
	 H           2.2618131996       -2.0917378483       -1.3063676705
	 H           2.5683267771       -1.1757875953        1.8747972891
	 H           5.6094630308        1.2020547884       -0.8401722354
	 H           3.3504844204        3.3068317469        0.5077694099
	 H           3.9281736970        3.9294965053       -3.7061308772
	             0.0017842072        0.0086485029       -0.0015533975
	            -0.0003205801       -0.0064255520        0.0091168964
	            -0.0174555119       -0.0169743707       -0.0028771191
	            -0.0067216329        0.0018236857        0.0005964823
	             0.0022154506       -0.0069720240       -0.0026488908
	             0.0024028400       -0.0041622827        0.0047100955
	             0.0044288410       -0.0012194253       -0.0044304624
	            -0.0030042762        0.0055661223       -0.0000058693
	             0.0166706622        0.0197153438       -0.0029077351

	Previous optimization step data not found.  Starting new optimization.

	---Fragment 1 Intrafragment Coordinates---
	 - Coordinate -           - BOHR/RAD -       - ANG/DEG -
	 R(1,2)           =         2.860663	       1.513797
	 R(1,4)           =         2.066401	       1.093492
	 R(1,5)           =         2.069192	       1.094969
	 R(1,6)           =         2.069527	       1.095147
	 R(2,3)           =         2.682832	       1.419693
	 R(2,7)           =         2.067469	       1.094058
	 R(2,8)           =         2.067445	       1.094045
	 R(3,9)           =         1.835638	       0.971378
	 B(1,2,3)         =         1.902503	     109.005407
	 B(1,2,7)         =         1.929247	     110.537701
	 B(1,2,8)         =         1.929369	     110.544679
	 B(2,1,4)         =         1.935697	     110.907292
	 B(2,1,5)         =         1.931178	     110.648339
	 B(2,1,6)         =         1.930777	     110.625373
	 B(2,3,9)         =         1.865033	     106.858529
	 B(3,2,7)         =         1.898721	     108.788685
	 B(3,2,8)         =         1.898845	     108.795812
	 B(4,1,5)         =         1.899602	     108.839152
	 B(4,1,6)         =         1.899238	     108.818345
	 B(5,1,6)         =         1.865575	     106.889558
	 B(7,2,8)         =         1.904644	     109.128035
	 D(1,2,3,9)       =         3.141484	     179.993776
	 D(3,2,1,4)       =        -1.055455	     -60.473093
	 D(3,2,1,5)       =         1.054434	      60.414598
	 D(3,2,1,6)       =         3.118569	     178.680852
	 D(4,1,2,7)       =        -3.141562	    -179.998237
	 D(4,1,2,8)       =         1.030880	      59.065052
	 D(5,1,2,7)       =        -1.031674	     -59.110546
	 D(5,1,2,8)       =         3.140768	     179.952744
	 D(6,1,2,7)       =         1.032462	      59.155707
	 D(6,1,2,8)       =        -1.078282	     -61.781003
	 D(7,2,3,9)       =        -1.036750	     -59.401376
	 D(8,2,3,9)       =         1.036309	      59.376160

	Current energy   :      -154.0741598358

	Generating empirical Hessian (Schlegel '84) for each fragment.
	Taking RFO optimization step.
	Going to follow RFO solution 1.
	Using RFO vector 1.
	Norm of target step-size    0.12220
	Projected energy change by RFO approximation:        -0.0012824977

	Back-transformation to cartesian coordinates...
	Could not converge backtransformation.
	Using first guess instead.

	--- Internal Coordinate Step in ANG or DEG, aJ/ANG or AJ/DEG ---
	 ---------------------------------------------------------------------------
	   Coordinate                Previous        Force       Change         New 
	   ----------                --------       ------       ------       ------
	    1 R(1,2)          =      1.513797    -0.008261    -0.001649     1.512148
	    2 R(1,4)          =      1.093492    -0.057469    -0.010550     1.082942
	    3 R(1,5)          =      1.094969    -0.060024    -0.010998     1.083971
	    4 R(1,6)          =      1.095147    -0.051641    -0.009476     1.085671
	    5 R(2,3)          =      1.419693    -0.051996    -0.007697     1.411996
	    6 R(2,7)          =      1.094058    -0.038588    -0.006757     1.087300
	    7 R(2,8)          =      1.094045    -0.038167    -0.006633     1.087412
	    8 R(3,9)          =      0.971378    -0.211681    -0.023915     0.947463
	    9 B(1,2,3)        =    109.005407    -0.000438    -1.143227   107.862180
	   10 B(1,2,7)        =    110.537701    -0.000019    -0.627778   109.909924
	   11 B(1,2,8)        =    110.544679    -0.000011    -0.602250   109.942429
	   12 B(2,1,4)        =    110.907292    -0.000012    -0.413341   110.493952
	   13 B(2,1,5)        =    110.648339    -0.000071    -0.205363   110.442976
	   14 B(2,1,6)        =    110.625373    -0.000073    -0.112820   110.512553
	   15 B(2,3,9)        =    106.858529     0.000539     2.570854   109.429383
	   16 B(3,2,7)        =    108.788685     0.000315     1.974479   110.763164
	   17 B(3,2,8)        =    108.795812     0.000307     1.912645   110.708457
	   18 B(4,1,5)        =    108.839152    -0.000023    -0.561419   108.277733
	   19 B(4,1,6)        =    108.818345     0.000007    -0.205030   108.613315
	   20 B(5,1,6)        =    106.889558     0.000180     1.540837   108.430396
	   21 B(7,2,8)        =    109.128035    -0.000141    -1.466312   107.661723
	   22 D(1,2,3,9)      =    179.993776     0.000000    -0.191626   179.802150
	   23 D(3,2,1,4)      =    -60.473093     0.000004     0.380482   -60.092611
	   24 D(3,2,1,5)      =     60.414598    -0.000016    -0.729333    59.685265
	   25 D(3,2,1,6)      =    178.680852     0.000015     0.984684   179.665536
	   26 D(4,1,2,7)      =   -179.998237    -0.000020    -0.948725  -180.946962
	   27 D(4,1,2,8)      =     59.065052     0.000026     1.649333    60.714386
	   28 D(5,1,2,7)      =    -59.110546    -0.000039    -2.058540   -61.169086
	   29 D(5,1,2,8)      =    179.952744     0.000006     0.539518   180.492262
	   30 D(6,1,2,7)      =     59.155707    -0.000009    -0.344523    58.811185
	   31 D(6,1,2,8)      =    -61.781003     0.000036     2.253535   -59.527468
	   32 D(7,2,3,9)      =    -59.401376    -0.000022    -0.477145   -59.878521
	   33 D(8,2,3,9)      =     59.376160     0.000021     0.099427    59.475587
	 ---------------------------------------------------------------------------
	Successfully symmetrized geometry.

  ==> Convergence Check <==

  Measures of convergence in internal coordinates in au.
  Criteria marked as inactive (o), active & met (*), and active & unmet ( ).
  --------------------------------------------------------------------------------------------- ~
   Step     Total Energy     Delta E     MAX Force     RMS Force      MAX Disp      RMS Disp    ~
  --------------------------------------------------------------------------------------------- ~
    Convergence Criteria    1.00e-06 *    3.00e-04 *             o    1.20e-03 *             o  ~
  --------------------------------------------------------------------------------------------- ~
      1    -154.07415984   -1.54e+02      2.57e-02      5.59e-03 o    4.52e-02      2.12e-02 o  ~
  ---------------------------------------------------------------------------------------------

	Writing optimization data to binary file.
	Structure for next step:
	Cartesian Geometry (in Angstrom)
	    C     1.0683102759  -0.2639125776  -0.0073875473
	    C     1.9200364185   0.9164718213  -0.4170796444
	    O     1.5159028673   1.3140658143  -1.7102650444
	    H     0.0208576713   0.0107408766   0.0057462397
	    H     1.1961556113  -1.0834096988  -0.7052943724
	    H     1.3483472780  -0.6096092958   0.9829430613
	    H     2.9702873057   0.6351230412  -0.4109274885
	    H     1.7923050351   1.7301832394   0.2928668084
	    H     2.0347974824   2.0564467610  -1.9883019969
			--------------------------
			 OPTKING Finished Execution 
			--------------------------

    Structure for next step:
    Molecular point group: c1
    Full point group: C1

    Geometry (in Angstrom), charge = 0, multiplicity = 1:

    C            1.068310280095    -0.263912578669    -0.007387547328
    C            1.920036426013     0.916471824948    -0.417079645993
    O            1.515902873248     1.314065819446    -1.710265051100
    H            0.020857671414     0.010740876616     0.005746239760
    H            1.196155615997    -1.083409703078    -0.705294375216
    H            1.348347283281    -0.609609298181     0.982943065155
    H            2.970287317398     0.635123043688    -0.410927490114
    H            1.792305042115     1.730183246152     0.292866809546
    H            2.034797490441     2.056446769078    -1.988302004711

gradient() will perform analytic gradient computation.

*** tstart() called on acer-mis
*** at Sat Aug  3 15:09:13 2019

   => Loading Basis Set <=

    Name: 6-31G*
    Role: ORBITAL
    Keyword: BASIS
    atoms 1-2 entry C          line   111 file /home/mschauperl/anaconda3/envs/RESP2/share/psi4/basis/6-31gs.gbs 
    atoms 3   entry O          line   145 file /home/mschauperl/anaconda3/envs/RESP2/share/psi4/basis/6-31gs.gbs 
    atoms 4-9 entry H          line    44 file /home/mschauperl/anaconda3/envs/RESP2/share/psi4/basis/6-31gs.gbs 


         ---------------------------------------------------------
                                   SCF
               by Justin Turney, Rob Parrish, Andy Simmonett
                          and Daniel G. A. Smith
                              RHF Reference
                        4 Threads,  11444 MiB Core
         ---------------------------------------------------------

  ==> Geometry <==

    Molecular point group: c1
    Full point group: C1

    Geometry (in Angstrom), charge = 0, multiplicity = 1:

       Center              X                  Y                   Z               Mass       
    ------------   -----------------  -----------------  -----------------  -----------------
         C            1.068310280095    -0.263912578669    -0.007387547328    12.000000000000
         C            1.920036426013     0.916471824948    -0.417079645993    12.000000000000
         O            1.515902873248     1.314065819446    -1.710265051100    15.994914619570
         H            0.020857671414     0.010740876616     0.005746239760     1.007825032230
         H            1.196155615997    -1.083409703078    -0.705294375216     1.007825032230
         H            1.348347283281    -0.609609298181     0.982943065155     1.007825032230
         H            2.970287317398     0.635123043688    -0.410927490114     1.007825032230
         H            1.792305042115     1.730183246152     0.292866809546     1.007825032230
         H            2.034797490441     2.056446769078    -1.988302004711     1.007825032230

  Running in c1 symmetry.

  Rotational constants: A =      0.52828  B =      0.08819  C =      0.08019 [cm^-1]
  Rotational constants: A =  15837.53136  B =   2643.93407  C =   2404.16859 [MHz]
  Nuclear repulsion =   82.352580639783980

  Charge       = 0
  Multiplicity = 1
  Electrons    = 26
  Nalpha       = 13
  Nbeta        = 13

  ==> Algorithm <==

  SCF Algorithm Type is DF.
  DIIS enabled.
  MOM disabled.
  Fractional occupation disabled.
  Guess Type is READ.
  Energy threshold   = 1.00e-08
  Density threshold  = 1.00e-08
  Integral threshold = 0.00e+00

  ==> Primary Basis <==

  Basis Set: 6-31G*
    Blend: 6-31G*
    Number of shells: 30
    Number of basis function: 57
    Number of Cartesian functions: 57
    Spherical Harmonics?: false
    Max angular momentum: 2

   => Loading Basis Set <=

    Name: (6-31G* AUX)
    Role: JKFIT
    Keyword: DF_BASIS_SCF
    atoms 1-2 entry C          line   121 file /home/mschauperl/anaconda3/envs/RESP2/share/psi4/basis/cc-pvdz-jkfit.gbs 
    atoms 3   entry O          line   221 file /home/mschauperl/anaconda3/envs/RESP2/share/psi4/basis/cc-pvdz-jkfit.gbs 
    atoms 4-9 entry H          line    51 file /home/mschauperl/anaconda3/envs/RESP2/share/psi4/basis/cc-pvdz-jkfit.gbs 

   => Loading Basis Set <=

    Name: 6-31G*
    Role: ORBITAL
    Keyword: BASIS
    atoms 1-2 entry C          line   111 file /home/mschauperl/anaconda3/envs/RESP2/share/psi4/basis/6-31gs.gbs 
    atoms 3   entry O          line   145 file /home/mschauperl/anaconda3/envs/RESP2/share/psi4/basis/6-31gs.gbs 
    atoms 4-9 entry H          line    44 file /home/mschauperl/anaconda3/envs/RESP2/share/psi4/basis/6-31gs.gbs 

  Reading orbitals from file 180, no projection.

  ==> Pre-Iterations <==

   -------------------------------------------------------
    Irrep   Nso     Nmo     Nalpha   Nbeta   Ndocc  Nsocc
   -------------------------------------------------------
     A         57      57       0       0       0       0
   -------------------------------------------------------
    Total      57      57      13      13      13       0
   -------------------------------------------------------

  ==> Integral Setup <==

  DFHelper Memory: AOs need 0.011 GiB; user supplied 8.382 GiB. Using in-core AOs.

  ==> MemDFJK: Density-Fitted J/K Matrices <==

    J tasked:                   Yes
    K tasked:                   Yes
    wK tasked:                   No
    OpenMP threads:               4
    Memory [MiB]:              8583
    Algorithm:                 Core
    Schwarz Cutoff:           1E-12
    Mask sparsity (%):       0.0616
    Fitting Condition:        1E-10

   => Auxiliary Basis Set <=

  Basis Set: (6-31G* AUX)
    Blend: CC-PVDZ-JKFIT
    Number of shells: 126
    Number of basis function: 393
    Number of Cartesian functions: 393
    Spherical Harmonics?: false
    Max angular momentum: 3

  Minimum eigenvalue in the overlap matrix is 5.7637061214E-03.
  Using Symmetric Orthogonalization.

  SCF Guess: Orbitals guess was supplied from a previous computation.

  ==> Iterations <==

                           Total Energy        Delta E     RMS |[F,P]|

   @DF-RHF iter   0:  -154.10625662714108   -1.54106e+02   1.06777e-03 
   @DF-RHF iter   1:  -154.07552280287874    3.07338e-02   1.81152e-04 DIIS
   @DF-RHF iter   2:  -154.07560116197880   -7.83591e-05   5.98395e-05 DIIS
   @DF-RHF iter   3:  -154.07561183867756   -1.06767e-05   2.28395e-05 DIIS
   @DF-RHF iter   4:  -154.07561362265352   -1.78398e-06   7.02296e-06 DIIS
   @DF-RHF iter   5:  -154.07561376147987   -1.38826e-07   1.80471e-06 DIIS
   @DF-RHF iter   6:  -154.07561377134735   -9.86748e-09   6.12735e-07 DIIS
   @DF-RHF iter   7:  -154.07561377215262   -8.05272e-10   1.29458e-07 DIIS
   @DF-RHF iter   8:  -154.07561377221919   -6.65636e-11   2.54959e-08 DIIS
   @DF-RHF iter   9:  -154.07561377222194   -2.75691e-12   7.54797e-09 DIIS
  Energy and wave function converged.


  ==> Post-Iterations <==

    Orbital Energies [Eh]
    ---------------------

    Doubly Occupied:                                                      

       1A    -20.552892     2A    -11.270672     3A    -11.208338  
       4A     -1.356888     5A     -1.012872     6A     -0.835905  
       7A     -0.700584     8A     -0.645329     9A     -0.568059  
      10A     -0.532973    11A     -0.524405    12A     -0.484294  
      13A     -0.436354  

    Virtual:                                                              

      14A      0.227155    15A      0.265312    16A      0.312089  
      17A      0.312811    18A      0.329300    19A      0.352378  
      20A      0.401695    21A      0.414172    22A      0.723222  
      23A      0.757017    24A      0.791817    25A      0.818319  
      26A      0.905521    27A      0.938872    28A      1.090345  
      29A      1.127815    30A      1.166474    31A      1.181133  
      32A      1.194349    33A      1.203319    34A      1.254382  
      35A      1.294141    36A      1.296757    37A      1.429794  
      38A      1.645895    39A      1.718074    40A      1.763731  
      41A      1.920738    42A      2.036444    43A      2.091614  
      44A      2.237520    45A      2.275497    46A      2.381567  
      47A      2.510242    48A      2.577031    49A      2.684606  
      50A      2.729403    51A      2.761545    52A      2.868432  
      53A      2.977918    54A      3.212743    55A      4.154694  
      56A      4.609525    57A      4.829753  

    Final Occupation by Irrep:
              A 
    DOCC [    13 ]

  @DF-RHF Final Energy:  -154.07561377222194

   => Energetics <=

    Nuclear Repulsion Energy =             82.3525806397839801
    One-Electron Energy =                -372.5972609973071599
    Two-Electron Energy =                 136.1690665853012376
    Total Energy =                       -154.0756137722219421

Computation Completed


Properties will be evaluated at   0.000000,   0.000000,   0.000000 [a0]

Properties computed using the SCF density matrix

  Nuclear Dipole Moment: [e a0]
     X:    74.4931      Y:    32.4416      Z:   -34.1131

  Electronic Dipole Moment: [e a0]
     X:   -73.9931      Y:   -32.1376      Z:    34.4820

  Dipole Moment: [e a0]
     X:     0.5000      Y:     0.3040      Z:     0.3689     Total:     0.6917

  Dipole Moment: [D]
     X:     1.2708      Y:     0.7726      Z:     0.9377     Total:     1.7581


*** tstop() called on acer-mis at Sat Aug  3 15:09:14 2019
Module time:
	user time   =       1.25 seconds =       0.02 minutes
	system time =       0.03 seconds =       0.00 minutes
	total time  =          1 seconds =       0.02 minutes
Total time:
	user time   =       4.18 seconds =       0.07 minutes
	system time =       0.09 seconds =       0.00 minutes
	total time  =          2 seconds =       0.03 minutes

*** tstart() called on acer-mis
*** at Sat Aug  3 15:09:14 2019


         ------------------------------------------------------------
                                   SCF GRAD                          
                          Rob Parrish, Justin Turney,                
                       Andy Simmonett, and Alex Sokolov              
         ------------------------------------------------------------

  ==> Geometry <==

    Molecular point group: c1
    Full point group: C1

    Geometry (in Angstrom), charge = 0, multiplicity = 1:

       Center              X                  Y                   Z               Mass       
    ------------   -----------------  -----------------  -----------------  -----------------
         C            1.068310280095    -0.263912578669    -0.007387547328    12.000000000000
         C            1.920036426013     0.916471824948    -0.417079645993    12.000000000000
         O            1.515902873248     1.314065819446    -1.710265051100    15.994914619570
         H            0.020857671414     0.010740876616     0.005746239760     1.007825032230
         H            1.196155615997    -1.083409703078    -0.705294375216     1.007825032230
         H            1.348347283281    -0.609609298181     0.982943065155     1.007825032230
         H            2.970287317398     0.635123043688    -0.410927490114     1.007825032230
         H            1.792305042115     1.730183246152     0.292866809546     1.007825032230
         H            2.034797490441     2.056446769078    -1.988302004711     1.007825032230

  Nuclear repulsion =   82.352580639783980

  ==> Basis Set <==

  Basis Set: 6-31G*
    Blend: 6-31G*
    Number of shells: 30
    Number of basis function: 57
    Number of Cartesian functions: 57
    Spherical Harmonics?: false
    Max angular momentum: 2

  ==> DFJKGrad: Density-Fitted SCF Gradients <==

    Gradient:                    1
    J tasked:                  Yes
    K tasked:                  Yes
    wK tasked:                  No
    OpenMP threads:              4
    Integrals threads:           4
    Memory [MiB]:             8583
    Schwarz Cutoff:          0E+00
    Fitting Condition:       1E-10

   => Auxiliary Basis Set <=

  Basis Set: (6-31G* AUX)
    Blend: CC-PVDZ-JKFIT
    Number of shells: 126
    Number of basis function: 393
    Number of Cartesian functions: 393
    Spherical Harmonics?: false
    Max angular momentum: 3


  -Total Gradient:
     Atom            X                  Y                   Z
    ------   -----------------  -----------------  -----------------
       1        0.000161843319     0.002105714041    -0.001025194179
       2        0.001950049891    -0.001158053109     0.004755562796
       3       -0.002744150604     0.000203771081    -0.004838798231
       4        0.000818275339    -0.000332153137     0.000082484381
       5       -0.000016307535    -0.000045317935     0.000369275684
       6        0.000160719423    -0.000017112078    -0.000230253056
       7       -0.000712438610    -0.000508140727     0.000680926747
       8       -0.000164437232    -0.000900500812     0.000264616623
       9        0.000546446009     0.000651792675    -0.000058620762


*** tstop() called on acer-mis at Sat Aug  3 15:09:14 2019
Module time:
	user time   =       0.98 seconds =       0.02 minutes
	system time =       0.01 seconds =       0.00 minutes
	total time  =          0 seconds =       0.00 minutes
Total time:
	user time   =       5.16 seconds =       0.09 minutes
	system time =       0.10 seconds =       0.00 minutes
	total time  =          2 seconds =       0.03 minutes

			-----------------------------------------
			 OPTKING 2.0: for geometry optimizations 
			  - R.A. King,  Bethel University        
			-----------------------------------------

	Previous internal coordinate definitions found.
	---Fragment 1 Geometry and Gradient---
	 C           2.0188138464       -0.4987224947       -0.0139604412
	 C           3.6283429961        1.7318807509       -0.7881663034
	 O           2.8646412632        2.4832245096       -3.2319325485
	 H           0.0394152866        0.0202973152        0.0108588194
	 H           2.2604065177       -2.0473476205       -1.3328132070
	 H           2.5480070874       -1.1519946171        1.8574931901
	 H           5.6130295438        1.2002086085       -0.7765404137
	 H           3.3869656629        3.2695724821        0.5534380613
	 H           3.8452099777        3.8861211851       -3.7573462436
	             0.0001618433        0.0021057140       -0.0010251942
	             0.0019500499       -0.0011580531        0.0047555628
	            -0.0027441506        0.0002037711       -0.0048387982
	             0.0008182753       -0.0003321531        0.0000824844
	            -0.0000163075       -0.0000453179        0.0003692757
	             0.0001607194       -0.0000171121       -0.0002302531
	            -0.0007124386       -0.0005081407        0.0006809267
	            -0.0001644372       -0.0009005008        0.0002646166
	             0.0005464460        0.0006517927       -0.0000586208

	---Fragment 1 Intrafragment Coordinates---
	 - Coordinate -           - BOHR/RAD -       - ANG/DEG -
	 R(1,2)           =         2.857546	       1.512148
	 R(1,4)           =         2.046464	       1.082942
	 R(1,5)           =         2.048409	       1.083971
	 R(1,6)           =         2.051621	       1.085671
	 R(2,3)           =         2.668286	       1.411996
	 R(2,7)           =         2.054700	       1.087300
	 R(2,8)           =         2.054911	       1.087412
	 R(3,9)           =         1.790445	       0.947463
	 B(1,2,3)         =         1.882550	     107.862180
	 B(1,2,7)         =         1.918290	     109.909924
	 B(1,2,8)         =         1.918857	     109.942429
	 B(2,1,4)         =         1.928483	     110.493952
	 B(2,1,5)         =         1.927594	     110.442976
	 B(2,1,6)         =         1.928808	     110.512553
	 B(2,3,9)         =         1.909903	     109.429383
	 B(3,2,7)         =         1.933182	     110.763164
	 B(3,2,8)         =         1.932227	     110.708457
	 B(4,1,5)         =         1.889803	     108.277733
	 B(4,1,6)         =         1.895660	     108.613315
	 B(5,1,6)         =         1.892467	     108.430396
	 B(7,2,8)         =         1.879052	     107.661723
	 D(1,2,3,9)       =         3.138140	     179.802150
	 D(3,2,1,4)       =        -1.048814	     -60.092611
	 D(3,2,1,5)       =         1.041704	      59.685265
	 D(3,2,1,6)       =         3.135755	     179.665536
	 D(4,1,2,7)       =         3.125065	     179.053038
	 D(4,1,2,8)       =         1.059666	      60.714386
	 D(5,1,2,7)       =        -1.067602	     -61.169086
	 D(5,1,2,8)       =        -3.133001	    -179.507738
	 D(6,1,2,7)       =         1.026449	      58.811185
	 D(6,1,2,8)       =        -1.038950	     -59.527468
	 D(7,2,3,9)       =        -1.045077	     -59.878521
	 D(8,2,3,9)       =         1.038045	      59.475587

	Current energy   :      -154.0756137722

	Energy change for the previous step:
		Projected    :        -0.0012824977
		Actual       :        -0.0014539364
	Energy ratio indicates good step: Trust radius increased to 1.000e+00.


	Performing BFGS update.
	Previous computed or guess Hessian on step 1.
	Steps to be used in Hessian update: 1
	Taking RFO optimization step.
	Going to follow RFO solution 1.
	Using RFO vector 1.
	Norm of target step-size    0.02675
	Projected energy change by RFO approximation:        -0.0002145115

	Back-transformation to cartesian coordinates...
	Could not converge backtransformation.
	Using first guess instead.

	--- Internal Coordinate Step in ANG or DEG, aJ/ANG or AJ/DEG ---
	 ---------------------------------------------------------------------------
	   Coordinate                Previous        Force       Change         New 
	   ----------                --------       ------       ------       ------
	    1 R(1,2)          =      1.512148     0.018017     0.003655     1.515803
	    2 R(1,4)          =      1.082942     0.007206     0.000898     1.083840
	    3 R(1,5)          =      1.083971     0.001692    -0.000150     1.083821
	    4 R(1,6)          =      1.085671     0.001344    -0.000144     1.085527
	    5 R(2,3)          =      1.411996    -0.044120    -0.006969     1.405027
	    6 R(2,7)          =      1.087300     0.004555     0.000593     1.087893
	    7 R(2,8)          =      1.087412     0.003969     0.000473     1.087885
	    8 R(3,9)          =      0.947463    -0.006815    -0.001837     0.945625
	    9 B(1,2,3)        =    107.862180     0.000064     0.155452   108.017632
	   10 B(1,2,7)        =    109.909924     0.000043     0.326231   110.236155
	   11 B(1,2,8)        =    109.942429     0.000035     0.294279   110.236708
	   12 B(2,1,4)        =    110.493952    -0.000017    -0.141647   110.352304
	   13 B(2,1,5)        =    110.442976    -0.000024    -0.121979   110.320997
	   14 B(2,1,6)        =    110.512553     0.000020     0.131474   110.644027
	   15 B(2,3,9)        =    109.429383     0.000028     0.241174   109.670557
	   16 B(3,2,7)        =    110.763164    -0.000068    -0.353655   110.409509
	   17 B(3,2,8)        =    110.708457    -0.000059    -0.290315   110.418142
	   18 B(4,1,5)        =    108.277733     0.000009    -0.062370   108.215363
	   19 B(4,1,6)        =    108.613315    -0.000002    -0.016989   108.596326
	   20 B(5,1,6)        =    108.430396     0.000014     0.214954   108.645350
	   21 B(7,2,8)        =    107.661723    -0.000015    -0.127551   107.534172
	   22 D(1,2,3,9)      =    179.802150    -0.000000     0.164795   179.966945
	   23 D(3,2,1,4)      =    -60.092611     0.000001     0.290573   -59.802037
	   24 D(3,2,1,5)      =     59.685265    -0.000002     0.044326    59.729591
	   25 D(3,2,1,6)      =    179.665536     0.000001     0.318674   179.984210
	   26 D(4,1,2,7)      =    179.053038     0.000005     0.431769   179.484807
	   27 D(4,1,2,8)      =     60.714386    -0.000002     0.207611    60.921996
	   28 D(5,1,2,7)      =    -61.169086     0.000002     0.185522   -60.983564
	   29 D(5,1,2,8)      =   -179.507738    -0.000005    -0.038637  -179.546375
	   30 D(6,1,2,7)      =     58.811185     0.000005     0.459870    59.271054
	   31 D(6,1,2,8)      =    -59.527468    -0.000002     0.235711   -59.291756
	   32 D(7,2,3,9)      =    -59.878521     0.000012     0.450313   -59.428208
	   33 D(8,2,3,9)      =     59.475587    -0.000011    -0.119329    59.356258
	 ---------------------------------------------------------------------------
	Successfully symmetrized geometry.

  ==> Convergence Check <==

  Measures of convergence in internal coordinates in au.
  Criteria marked as inactive (o), active & met (*), and active & unmet ( ).
  ---------------------------------------------------------------------------------------------
   Step     Total Energy     Delta E     MAX Force     RMS Force      MAX Disp      RMS Disp   
  ---------------------------------------------------------------------------------------------
    Convergence Criteria    1.00e-06 *    3.00e-04 *             o    1.20e-03 *             o
  ---------------------------------------------------------------------------------------------
      2    -154.07561377   -1.45e-03      5.36e-03      1.10e-03 o    1.32e-02      4.66e-03 o  ~
  ---------------------------------------------------------------------------------------------

	Writing optimization data to binary file.
	Structure for next step:
	Cartesian Geometry (in Angstrom)
	    C     1.0672776221  -0.2670506851  -0.0059384203
	    C     1.9198045438   0.9165754616  -0.4181096369
	    O     1.5175523097   1.3150780710  -1.7039906161
	    H     0.0190992917   0.0085193329   0.0036551951
	    H     1.1960871273  -1.0852605592  -0.7049440881
	    H     1.3438686432  -0.6110413799   0.9857953839
	    H     2.9720797110   0.6404793212  -0.4183180952
	    H     1.7956015698   1.7341033212   0.2887961126
	    H     2.0356291268   2.0546970977  -1.9846458195
			--------------------------
			 OPTKING Finished Execution 
			--------------------------

    Structure for next step:
    Molecular point group: c1
    Full point group: C1

    Geometry (in Angstrom), charge = 0, multiplicity = 1:

    C            1.067277626337    -0.267050686139    -0.005938420333
    C            1.919804551353     0.916575465211    -0.418109638528
    O            1.517552315686     1.315078076134    -1.703990622797
    H            0.019099291798     0.008519332958     0.003655195080
    H            1.196087131964    -1.085260563443    -0.704944090918
    H            1.343868648510    -0.611041382256     0.985795387787
    H            2.972079722671     0.640479323763    -0.418318096795
    H            1.795601576901     1.734103327992     0.288796113773
    H            2.035629134781     2.054697105780    -1.984645827267

gradient() will perform analytic gradient computation.

*** tstart() called on acer-mis
*** at Sat Aug  3 15:09:14 2019

   => Loading Basis Set <=

    Name: 6-31G*
    Role: ORBITAL
    Keyword: BASIS
    atoms 1-2 entry C          line   111 file /home/mschauperl/anaconda3/envs/RESP2/share/psi4/basis/6-31gs.gbs 
    atoms 3   entry O          line   145 file /home/mschauperl/anaconda3/envs/RESP2/share/psi4/basis/6-31gs.gbs 
    atoms 4-9 entry H          line    44 file /home/mschauperl/anaconda3/envs/RESP2/share/psi4/basis/6-31gs.gbs 


         ---------------------------------------------------------
                                   SCF
               by Justin Turney, Rob Parrish, Andy Simmonett
                          and Daniel G. A. Smith
                              RHF Reference
                        4 Threads,  11444 MiB Core
         ---------------------------------------------------------

  ==> Geometry <==

    Molecular point group: c1
    Full point group: C1

    Geometry (in Angstrom), charge = 0, multiplicity = 1:

       Center              X                  Y                   Z               Mass       
    ------------   -----------------  -----------------  -----------------  -----------------
         C            1.067277626337    -0.267050686139    -0.005938420333    12.000000000000
         C            1.919804551353     0.916575465211    -0.418109638528    12.000000000000
         O            1.517552315686     1.315078076134    -1.703990622797    15.994914619570
         H            0.019099291798     0.008519332958     0.003655195080     1.007825032230
         H            1.196087131964    -1.085260563443    -0.704944090918     1.007825032230
         H            1.343868648510    -0.611041382256     0.985795387787     1.007825032230
         H            2.972079722671     0.640479323763    -0.418318096795     1.007825032230
         H            1.795601576901     1.734103327992     0.288796113773     1.007825032230
         H            2.035629134781     2.054697105780    -1.984645827267     1.007825032230

  Running in c1 symmetry.

  Rotational constants: A =      0.53013  B =      0.08824  C =      0.08027 [cm^-1]
  Rotational constants: A =  15892.95136  B =   2645.26080  C =   2406.32537 [MHz]
  Nuclear repulsion =   82.422793738205257

  Charge       = 0
  Multiplicity = 1
  Electrons    = 26
  Nalpha       = 13
  Nbeta        = 13

  ==> Algorithm <==

  SCF Algorithm Type is DF.
  DIIS enabled.
  MOM disabled.
  Fractional occupation disabled.
  Guess Type is READ.
  Energy threshold   = 1.00e-08
  Density threshold  = 1.00e-08
  Integral threshold = 0.00e+00

  ==> Primary Basis <==

  Basis Set: 6-31G*
    Blend: 6-31G*
    Number of shells: 30
    Number of basis function: 57
    Number of Cartesian functions: 57
    Spherical Harmonics?: false
    Max angular momentum: 2

   => Loading Basis Set <=

    Name: (6-31G* AUX)
    Role: JKFIT
    Keyword: DF_BASIS_SCF
    atoms 1-2 entry C          line   121 file /home/mschauperl/anaconda3/envs/RESP2/share/psi4/basis/cc-pvdz-jkfit.gbs 
    atoms 3   entry O          line   221 file /home/mschauperl/anaconda3/envs/RESP2/share/psi4/basis/cc-pvdz-jkfit.gbs 
    atoms 4-9 entry H          line    51 file /home/mschauperl/anaconda3/envs/RESP2/share/psi4/basis/cc-pvdz-jkfit.gbs 

   => Loading Basis Set <=

    Name: 6-31G*
    Role: ORBITAL
    Keyword: BASIS
    atoms 1-2 entry C          line   111 file /home/mschauperl/anaconda3/envs/RESP2/share/psi4/basis/6-31gs.gbs 
    atoms 3   entry O          line   145 file /home/mschauperl/anaconda3/envs/RESP2/share/psi4/basis/6-31gs.gbs 
    atoms 4-9 entry H          line    44 file /home/mschauperl/anaconda3/envs/RESP2/share/psi4/basis/6-31gs.gbs 

  Reading orbitals from file 180, no projection.

  ==> Pre-Iterations <==

   -------------------------------------------------------
    Irrep   Nso     Nmo     Nalpha   Nbeta   Ndocc  Nsocc
   -------------------------------------------------------
     A         57      57       0       0       0       0
   -------------------------------------------------------
    Total      57      57      13      13      13       0
   -------------------------------------------------------

  ==> Integral Setup <==

  DFHelper Memory: AOs need 0.011 GiB; user supplied 8.382 GiB. Using in-core AOs.

  ==> MemDFJK: Density-Fitted J/K Matrices <==

    J tasked:                   Yes
    K tasked:                   Yes
    wK tasked:                   No
    OpenMP threads:               4
    Memory [MiB]:              8583
    Algorithm:                 Core
    Schwarz Cutoff:           1E-12
    Mask sparsity (%):       0.0616
    Fitting Condition:        1E-10

   => Auxiliary Basis Set <=

  Basis Set: (6-31G* AUX)
    Blend: CC-PVDZ-JKFIT
    Number of shells: 126
    Number of basis function: 393
    Number of Cartesian functions: 393
    Spherical Harmonics?: false
    Max angular momentum: 3

  Minimum eigenvalue in the overlap matrix is 5.7661587049E-03.
  Using Symmetric Orthogonalization.

  SCF Guess: Orbitals guess was supplied from a previous computation.

  ==> Iterations <==

                           Total Energy        Delta E     RMS |[F,P]|

   @DF-RHF iter   0:  -154.07821685423346   -1.54078e+02   3.33570e-04 
   @DF-RHF iter   1:  -154.07566230857574    2.55455e-03   3.60389e-05 DIIS
   @DF-RHF iter   2:  -154.07566499079567   -2.68222e-06   9.51105e-06 DIIS
   @DF-RHF iter   3:  -154.07566525206013   -2.61264e-07   3.39373e-06 DIIS
   @DF-RHF iter   4:  -154.07566529619280   -4.41327e-08   1.24853e-06 DIIS
   @DF-RHF iter   5:  -154.07566530035533   -4.16253e-09   3.51566e-07 DIIS
   @DF-RHF iter   6:  -154.07566530085055   -4.95220e-10   1.01696e-07 DIIS
   @DF-RHF iter   7:  -154.07566530087678   -2.62332e-11   2.65927e-08 DIIS
   @DF-RHF iter   8:  -154.07566530087945   -2.67164e-12   5.87887e-09 DIIS
  Energy and wave function converged.


  ==> Post-Iterations <==

    Orbital Energies [Eh]
    ---------------------

    Doubly Occupied:                                                      

       1A    -20.552322     2A    -11.270437     3A    -11.208673  
       4A     -1.359635     5A     -1.011557     6A     -0.836443  
       7A     -0.702209     8A     -0.645467     9A     -0.568730  
      10A     -0.533849    11A     -0.524874    12A     -0.483197  
      13A     -0.435224  

    Virtual:                                                              

      14A      0.227108    15A      0.265979    16A      0.312116  
      17A      0.312822    18A      0.329481    19A      0.352457  
      20A      0.403439    21A      0.414059    22A      0.725154  
      23A      0.755866    24A      0.792025    25A      0.821238  
      26A      0.907320    27A      0.936824    28A      1.090127  
      29A      1.127666    30A      1.166939    31A      1.181073  
      32A      1.194152    33A      1.203231    34A      1.253902  
      35A      1.294265    36A      1.295432    37A      1.430251  
      38A      1.646260    39A      1.717855    40A      1.765596  
      41A      1.921713    42A      2.035216    43A      2.089648  
      44A      2.235354    45A      2.272030    46A      2.390090  
      47A      2.515828    48A      2.578956    49A      2.685551  
      50A      2.727732    51A      2.763178    52A      2.872987  
      53A      2.979979    54A      3.215166    55A      4.158884  
      56A      4.607743    57A      4.829608  

    Final Occupation by Irrep:
              A 
    DOCC [    13 ]

  @DF-RHF Final Energy:  -154.07566530087945

   => Energetics <=

    Nuclear Repulsion Energy =             82.4227937382052573
    One-Electron Energy =                -372.7316877895372045
    Two-Electron Energy =                 136.2332287504524970
    Total Energy =                       -154.0756653008794501

Computation Completed


Properties will be evaluated at   0.000000,   0.000000,   0.000000 [a0]

Properties computed using the SCF density matrix

  Nuclear Dipole Moment: [e a0]
     X:    74.5030      Y:    32.4263      Z:   -34.0262

  Electronic Dipole Moment: [e a0]
     X:   -74.0056      Y:   -32.1220      Z:    34.3842

  Dipole Moment: [e a0]
     X:     0.4973      Y:     0.3043      Z:     0.3580     Total:     0.6842

  Dipole Moment: [D]
     X:     1.2641      Y:     0.7734      Z:     0.9099     Total:     1.7390


*** tstop() called on acer-mis at Sat Aug  3 15:09:14 2019
Module time:
	user time   =       1.26 seconds =       0.02 minutes
	system time =       0.00 seconds =       0.00 minutes
	total time  =          0 seconds =       0.00 minutes
Total time:
	user time   =       6.47 seconds =       0.11 minutes
	system time =       0.10 seconds =       0.00 minutes
	total time  =          2 seconds =       0.03 minutes

*** tstart() called on acer-mis
*** at Sat Aug  3 15:09:14 2019


         ------------------------------------------------------------
                                   SCF GRAD                          
                          Rob Parrish, Justin Turney,                
                       Andy Simmonett, and Alex Sokolov              
         ------------------------------------------------------------

  ==> Geometry <==

    Molecular point group: c1
    Full point group: C1

    Geometry (in Angstrom), charge = 0, multiplicity = 1:

       Center              X                  Y                   Z               Mass       
    ------------   -----------------  -----------------  -----------------  -----------------
         C            1.067277626337    -0.267050686139    -0.005938420333    12.000000000000
         C            1.919804551353     0.916575465211    -0.418109638528    12.000000000000
         O            1.517552315686     1.315078076134    -1.703990622797    15.994914619570
         H            0.019099291798     0.008519332958     0.003655195080     1.007825032230
         H            1.196087131964    -1.085260563443    -0.704944090918     1.007825032230
         H            1.343868648510    -0.611041382256     0.985795387787     1.007825032230
         H            2.972079722671     0.640479323763    -0.418318096795     1.007825032230
         H            1.795601576901     1.734103327992     0.288796113773     1.007825032230
         H            2.035629134781     2.054697105780    -1.984645827267     1.007825032230

  Nuclear repulsion =   82.422793738205257

  ==> Basis Set <==

  Basis Set: 6-31G*
    Blend: 6-31G*
    Number of shells: 30
    Number of basis function: 57
    Number of Cartesian functions: 57
    Spherical Harmonics?: false
    Max angular momentum: 2

  ==> DFJKGrad: Density-Fitted SCF Gradients <==

    Gradient:                    1
    J tasked:                  Yes
    K tasked:                  Yes
    wK tasked:                  No
    OpenMP threads:              4
    Integrals threads:           4
    Memory [MiB]:             8583
    Schwarz Cutoff:          0E+00
    Fitting Condition:       1E-10

   => Auxiliary Basis Set <=

  Basis Set: (6-31G* AUX)
    Blend: CC-PVDZ-JKFIT
    Number of shells: 126
    Number of basis function: 393
    Number of Cartesian functions: 393
    Spherical Harmonics?: false
    Max angular momentum: 3


  -Total Gradient:
     Atom            X                  Y                   Z
    ------   -----------------  -----------------  -----------------
       1       -0.000355710876    -0.000236649295    -0.000301484027
       2        0.000338436636    -0.000404153697     0.001156054472
       3        0.000869315090     0.001011780615    -0.000154986487
       4        0.000210724634    -0.000233936196     0.000036014303
       5       -0.000149247841     0.000170946501     0.000187128697
       6       -0.000069283207     0.000061269485    -0.000077130706
       7       -0.000296672637     0.000421956407    -0.000470139371
       8        0.000069077684     0.000064611637    -0.000679706150
       9       -0.000616639485    -0.000855825458     0.000304249270


*** tstop() called on acer-mis at Sat Aug  3 15:09:14 2019
Module time:
	user time   =       0.99 seconds =       0.02 minutes
	system time =       0.01 seconds =       0.00 minutes
	total time  =          0 seconds =       0.00 minutes
Total time:
	user time   =       7.47 seconds =       0.12 minutes
	system time =       0.11 seconds =       0.00 minutes
	total time  =          2 seconds =       0.03 minutes

			-----------------------------------------
			 OPTKING 2.0: for geometry optimizations 
			  - R.A. King,  Bethel University        
			-----------------------------------------

	Previous internal coordinate definitions found.
	---Fragment 1 Geometry and Gradient---
	 C           2.0168624136       -0.5046526584       -0.0112219880
	 C           3.6279048165        1.7320766026       -0.7901127072
	 O           2.8677582577        2.4851373975       -3.2200755974
	 H           0.0360924307        0.0160992061        0.0069073176
	 H           2.2602771016       -2.0508452397       -1.3321512656
	 H           2.5395436943       -1.1547008638        1.8628832987
	 H           5.6164166989        1.2103305109       -0.7905066363
	 H           3.3931952108        3.2769803631        0.5457455611
	 H           3.8467815577        3.8828148007       -3.7504370696
	            -0.0003557109       -0.0002366493       -0.0003014840
	             0.0003384366       -0.0004041537        0.0011560545
	             0.0008693151        0.0010117806       -0.0001549865
	             0.0002107246       -0.0002339362        0.0000360143
	            -0.0001492478        0.0001709465        0.0001871287
	            -0.0000692832        0.0000612695       -0.0000771307
	            -0.0002966726        0.0004219564       -0.0004701394
	             0.0000690777        0.0000646116       -0.0006797061
	            -0.0006166395       -0.0008558255        0.0003042493

	---Fragment 1 Intrafragment Coordinates---
	 - Coordinate -           - BOHR/RAD -       - ANG/DEG -
	 R(1,2)           =         2.864452	       1.515803
	 R(1,4)           =         2.048160	       1.083840
	 R(1,5)           =         2.048125	       1.083821
	 R(1,6)           =         2.051348	       1.085527
	 R(2,3)           =         2.655116	       1.405027
	 R(2,7)           =         2.055821	       1.087893
	 R(2,8)           =         2.055805	       1.087885
	 R(3,9)           =         1.786973	       0.945625
	 B(1,2,3)         =         1.885263	     108.017632
	 B(1,2,7)         =         1.923984	     110.236155
	 B(1,2,8)         =         1.923994	     110.236708
	 B(2,1,4)         =         1.926011	     110.352304
	 B(2,1,5)         =         1.925465	     110.320997
	 B(2,1,6)         =         1.931103	     110.644027
	 B(2,3,9)         =         1.914112	     109.670557
	 B(3,2,7)         =         1.927009	     110.409509
	 B(3,2,8)         =         1.927160	     110.418142
	 B(4,1,5)         =         1.888714	     108.215363
	 B(4,1,6)         =         1.895363	     108.596326
	 B(5,1,6)         =         1.896219	     108.645350
	 B(7,2,8)         =         1.876825	     107.534172
	 D(1,2,3,9)       =         3.141016	     179.966945
	 D(3,2,1,4)       =        -1.043742	     -59.802037
	 D(3,2,1,5)       =         1.042478	      59.729591
	 D(3,2,1,6)       =         3.141317	     179.984210
	 D(4,1,2,7)       =         3.132601	     179.484807
	 D(4,1,2,8)       =         1.063289	      60.921996
	 D(5,1,2,7)       =        -1.064364	     -60.983564
	 D(5,1,2,8)       =        -3.133675	    -179.546375
	 D(6,1,2,7)       =         1.034475	      59.271054
	 D(6,1,2,8)       =        -1.034836	     -59.291756
	 D(7,2,3,9)       =        -1.037218	     -59.428208
	 D(8,2,3,9)       =         1.035962	      59.356258

	Current energy   :      -154.0756653009

	Energy change for the previous step:
		Projected    :        -0.0002145115
		Actual       :        -0.0000515287
	Energy ratio indicates iffy step: Trust radius decreased to 2.500e-01.


	Performing BFGS update.
	Previous computed or guess Hessian on step 1.
	Steps to be used in Hessian update: 2 1
	Taking RFO optimization step.
	Going to follow RFO solution 1.
	Using RFO vector 1.
	Norm of target step-size    0.00937
	Projected energy change by RFO approximation:        -0.0000064946

	Back-transformation to cartesian coordinates...
	Could not converge backtransformation.
	Using first guess instead.

	--- Internal Coordinate Step in ANG or DEG, aJ/ANG or AJ/DEG ---
	 ---------------------------------------------------------------------------
	   Coordinate                Previous        Force       Change         New 
	   ----------                --------       ------       ------       ------
	    1 R(1,2)          =      1.515803    -0.002870    -0.000247     1.515556
	    2 R(1,4)          =      1.083840     0.002166     0.000468     1.084307
	    3 R(1,5)          =      1.083821     0.002204     0.000406     1.084227
	    4 R(1,6)          =      1.085527     0.000886     0.000186     1.085713
	    5 R(2,3)          =      1.405027     0.001357    -0.000258     1.404769
	    6 R(2,7)          =      1.087893     0.003246     0.000597     1.088490
	    7 R(2,8)          =      1.087885     0.003304     0.000600     1.088485
	    8 R(3,9)          =      0.945625     0.009042     0.000942     0.946567
	    9 B(1,2,3)        =    108.017632    -0.000008     0.020046   108.037678
	   10 B(1,2,7)        =    110.236155    -0.000031    -0.169494   110.066661
	   11 B(1,2,8)        =    110.236708    -0.000029    -0.166264   110.070445
	   12 B(2,1,4)        =    110.352304    -0.000017    -0.071926   110.280378
	   13 B(2,1,5)        =    110.320997    -0.000008    -0.044543   110.276454
	   14 B(2,1,6)        =    110.644027     0.000004     0.025404   110.669431
	   15 B(2,3,9)        =    109.670557    -0.000004    -0.013251   109.657306
	   16 B(3,2,7)        =    110.409509     0.000031     0.179539   110.589048
	   17 B(3,2,8)        =    110.418142     0.000030     0.174679   110.592821
	   18 B(4,1,5)        =    108.215363     0.000013     0.047946   108.263309
	   19 B(4,1,6)        =    108.596326     0.000008     0.039612   108.635939
	   20 B(5,1,6)        =    108.645350     0.000001     0.006359   108.651708
	   21 B(7,2,8)        =    107.534172     0.000007    -0.040692   107.493480
	   22 D(1,2,3,9)      =    179.966945     0.000000     0.050996   180.017941
	   23 D(3,2,1,4)      =    -59.802037     0.000000     0.041207   -59.760830
	   24 D(3,2,1,5)      =     59.729591     0.000000     0.026767    59.756358
	   25 D(3,2,1,6)      =    179.984210    -0.000000     0.022128   180.006338
	   26 D(4,1,2,7)      =    179.484807    -0.000003    -0.089256   179.395551
	   27 D(4,1,2,8)      =     60.921996     0.000003     0.167659    61.089655
	   28 D(5,1,2,7)      =    -60.983564    -0.000003    -0.103697   -61.087261
	   29 D(5,1,2,8)      =   -179.546375     0.000003     0.153219  -179.393156
	   30 D(6,1,2,7)      =     59.271054    -0.000004    -0.108335    59.162719
	   31 D(6,1,2,8)      =    -59.291756     0.000003     0.148580   -59.143176
	   32 D(7,2,3,9)      =    -59.428208    -0.000005    -0.036420   -59.464629
	   33 D(8,2,3,9)      =     59.356258     0.000005     0.137355    59.493613
	 ---------------------------------------------------------------------------
	Successfully symmetrized geometry.

  ==> Convergence Check <==

  Measures of convergence in internal coordinates in au.
  Criteria marked as inactive (o), active & met (*), and active & unmet ( ).
  ---------------------------------------------------------------------------------------------
   Step     Total Energy     Delta E     MAX Force     RMS Force      MAX Disp      RMS Disp   
  ---------------------------------------------------------------------------------------------
    Convergence Criteria    1.00e-06 *    3.00e-04 *             o    1.20e-03 *             o
  ---------------------------------------------------------------------------------------------
      3    -154.07566530   -5.15e-05      1.10e-03      3.00e-04 o    3.13e-03      1.63e-03 o  ~
  ---------------------------------------------------------------------------------------------

	Writing optimization data to binary file.
	Structure for next step:
	Cartesian Geometry (in Angstrom)
	    C     1.0677143603  -0.2666266565  -0.0059525007
	    C     1.9194168090   0.9169270519  -0.4191265899
	    O     1.5164918815   1.3151114434  -1.7046136832
	    H     0.0192718300   0.0097902892   0.0032313296
	    H     1.1972160623  -1.0850607090  -0.7051977836
	    H     1.3446016272  -0.6103214407   0.9860050089
	    H     2.9717428852   0.6386913060  -0.4168536101
	    H     1.7950986760   1.7325655040   0.2908584856
	    H     2.0354458139   2.0550231933  -1.9860506410
			--------------------------
			 OPTKING Finished Execution 
			--------------------------

    Structure for next step:
    Molecular point group: c1
    Full point group: C1

    Geometry (in Angstrom), charge = 0, multiplicity = 1:

    C            1.067714364522    -0.266626657512    -0.005952500756
    C            1.919416816572     0.916927055527    -0.419126591540
    O            1.516491887490     1.315111448523    -1.704613689852
    H            0.019271830049     0.009790289244     0.003231329566
    H            1.197216066981    -1.085060713307    -0.705197786337
    H            1.344601632514    -0.610321443119     0.986005012729
    H            2.971742896849     0.638691308488    -0.416853611725
    H            1.795098683087     1.732565510762     0.290858486694
    H            2.035445821935     2.055023201395    -1.986050648779

gradient() will perform analytic gradient computation.

*** tstart() called on acer-mis
*** at Sat Aug  3 15:09:14 2019

   => Loading Basis Set <=

    Name: 6-31G*
    Role: ORBITAL
    Keyword: BASIS
    atoms 1-2 entry C          line   111 file /home/mschauperl/anaconda3/envs/RESP2/share/psi4/basis/6-31gs.gbs 
    atoms 3   entry O          line   145 file /home/mschauperl/anaconda3/envs/RESP2/share/psi4/basis/6-31gs.gbs 
    atoms 4-9 entry H          line    44 file /home/mschauperl/anaconda3/envs/RESP2/share/psi4/basis/6-31gs.gbs 


         ---------------------------------------------------------
                                   SCF
               by Justin Turney, Rob Parrish, Andy Simmonett
                          and Daniel G. A. Smith
                              RHF Reference
                        4 Threads,  11444 MiB Core
         ---------------------------------------------------------

  ==> Geometry <==

    Molecular point group: c1
    Full point group: C1

    Geometry (in Angstrom), charge = 0, multiplicity = 1:

       Center              X                  Y                   Z               Mass       
    ------------   -----------------  -----------------  -----------------  -----------------
         C            1.067714364522    -0.266626657512    -0.005952500756    12.000000000000
         C            1.919416816572     0.916927055527    -0.419126591540    12.000000000000
         O            1.516491887490     1.315111448523    -1.704613689852    15.994914619570
         H            0.019271830049     0.009790289244     0.003231329566     1.007825032230
         H            1.197216066981    -1.085060713307    -0.705197786337     1.007825032230
         H            1.344601632514    -0.610321443119     0.986005012729     1.007825032230
         H            2.971742896849     0.638691308488    -0.416853611725     1.007825032230
         H            1.795098683087     1.732565510762     0.290858486694     1.007825032230
         H            2.035445821935     2.055023201395    -1.986050648779     1.007825032230

  Running in c1 symmetry.

  Rotational constants: A =      0.52987  B =      0.08825  C =      0.08027 [cm^-1]
  Rotational constants: A =  15884.99233  B =   2645.63649  C =   2406.39543 [MHz]
  Nuclear repulsion =   82.416734652184260

  Charge       = 0
  Multiplicity = 1
  Electrons    = 26
  Nalpha       = 13
  Nbeta        = 13

  ==> Algorithm <==

  SCF Algorithm Type is DF.
  DIIS enabled.
  MOM disabled.
  Fractional occupation disabled.
  Guess Type is READ.
  Energy threshold   = 1.00e-08
  Density threshold  = 1.00e-08
  Integral threshold = 0.00e+00

  ==> Primary Basis <==

  Basis Set: 6-31G*
    Blend: 6-31G*
    Number of shells: 30
    Number of basis function: 57
    Number of Cartesian functions: 57
    Spherical Harmonics?: false
    Max angular momentum: 2

   => Loading Basis Set <=

    Name: (6-31G* AUX)
    Role: JKFIT
    Keyword: DF_BASIS_SCF
    atoms 1-2 entry C          line   121 file /home/mschauperl/anaconda3/envs/RESP2/share/psi4/basis/cc-pvdz-jkfit.gbs 
    atoms 3   entry O          line   221 file /home/mschauperl/anaconda3/envs/RESP2/share/psi4/basis/cc-pvdz-jkfit.gbs 
    atoms 4-9 entry H          line    51 file /home/mschauperl/anaconda3/envs/RESP2/share/psi4/basis/cc-pvdz-jkfit.gbs 

   => Loading Basis Set <=

    Name: 6-31G*
    Role: ORBITAL
    Keyword: BASIS
    atoms 1-2 entry C          line   111 file /home/mschauperl/anaconda3/envs/RESP2/share/psi4/basis/6-31gs.gbs 
    atoms 3   entry O          line   145 file /home/mschauperl/anaconda3/envs/RESP2/share/psi4/basis/6-31gs.gbs 
    atoms 4-9 entry H          line    44 file /home/mschauperl/anaconda3/envs/RESP2/share/psi4/basis/6-31gs.gbs 

  Reading orbitals from file 180, no projection.

  ==> Pre-Iterations <==

   -------------------------------------------------------
    Irrep   Nso     Nmo     Nalpha   Nbeta   Ndocc  Nsocc
   -------------------------------------------------------
     A         57      57       0       0       0       0
   -------------------------------------------------------
    Total      57      57      13      13      13       0
   -------------------------------------------------------

  ==> Integral Setup <==

  DFHelper Memory: AOs need 0.011 GiB; user supplied 8.382 GiB. Using in-core AOs.

  ==> MemDFJK: Density-Fitted J/K Matrices <==

    J tasked:                   Yes
    K tasked:                   Yes
    wK tasked:                   No
    OpenMP threads:               4
    Memory [MiB]:              8583
    Algorithm:                 Core
    Schwarz Cutoff:           1E-12
    Mask sparsity (%):       0.0616
    Fitting Condition:        1E-10

   => Auxiliary Basis Set <=

  Basis Set: (6-31G* AUX)
    Blend: CC-PVDZ-JKFIT
    Number of shells: 126
    Number of basis function: 393
    Number of Cartesian functions: 393
    Spherical Harmonics?: false
    Max angular momentum: 3

  Minimum eigenvalue in the overlap matrix is 5.7667456020E-03.
  Using Symmetric Orthogonalization.

  SCF Guess: Orbitals guess was supplied from a previous computation.

  ==> Iterations <==

                           Total Energy        Delta E     RMS |[F,P]|

   @DF-RHF iter   0:  -154.07446357274904   -1.54074e+02   5.30687e-05 
   @DF-RHF iter   1:  -154.07567119478631   -1.20762e-03   1.19412e-05 DIIS
   @DF-RHF iter   2:  -154.07567139123748   -1.96451e-07   6.27673e-06 DIIS
   @DF-RHF iter   3:  -154.07567144159023   -5.03528e-08   1.23340e-06 DIIS
   @DF-RHF iter   4:  -154.07567144594790   -4.35767e-09   3.11145e-07 DIIS
   @DF-RHF iter   5:  -154.07567144632736   -3.79458e-10   1.08069e-07 DIIS
   @DF-RHF iter   6:  -154.07567144637702   -4.96527e-11   3.26144e-08 DIIS
   @DF-RHF iter   7:  -154.07567144638165   -4.63274e-12   7.28056e-09 DIIS
  Energy and wave function converged.


  ==> Post-Iterations <==

    Orbital Energies [Eh]
    ---------------------

    Doubly Occupied:                                                      

       1A    -20.552743     2A    -11.270538     3A    -11.208688  
       4A     -1.359671     5A     -1.011584     6A     -0.836065  
       7A     -0.702267     8A     -0.645383     9A     -0.568789  
      10A     -0.533904    11A     -0.524748    12A     -0.482975  
      13A     -0.435275  

    Virtual:                                                              

      14A      0.226985    15A      0.265767    16A      0.312168  
      17A      0.312780    18A      0.329415    19A      0.352317  
      20A      0.403435    21A      0.414149    22A      0.724912  
      23A      0.756585    24A      0.792034    25A      0.821301  
      26A      0.906407    27A      0.936992    28A      1.089721  
      29A      1.127145    30A      1.166319    31A      1.181031  
      32A      1.193880    33A      1.202815    34A      1.253699  
      35A      1.293583    36A      1.295594    37A      1.430424  
      38A      1.646272    39A      1.717560    40A      1.765630  
      41A      1.921372    42A      2.034921    43A      2.089649  
      44A      2.236480    45A      2.272815    46A      2.389322  
      47A      2.514674    48A      2.578511    49A      2.683117  
      50A      2.727294    51A      2.764720    52A      2.872135  
      53A      2.980540    54A      3.214845    55A      4.158450  
      56A      4.607633    57A      4.829398  

    Final Occupation by Irrep:
              A 
    DOCC [    13 ]

  @DF-RHF Final Energy:  -154.07567144638165

   => Energetics <=

    Nuclear Repulsion Energy =             82.4167346521842603
    One-Electron Energy =                -372.7195508395031993
    Two-Electron Energy =                 136.2271447409373195
    Total Energy =                       -154.0756714463816479

Computation Completed


Properties will be evaluated at   0.000000,   0.000000,   0.000000 [a0]

Properties computed using the SCF density matrix

  Nuclear Dipole Moment: [e a0]
     X:    74.4894      Y:    32.4341      Z:   -34.0442

  Electronic Dipole Moment: [e a0]
     X:   -73.9913      Y:   -32.1290      Z:    34.4004

  Dipole Moment: [e a0]
     X:     0.4981      Y:     0.3050      Z:     0.3562     Total:     0.6841

  Dipole Moment: [D]
     X:     1.2660      Y:     0.7753      Z:     0.9055     Total:     1.7389


*** tstop() called on acer-mis at Sat Aug  3 15:09:15 2019
Module time:
	user time   =       1.25 seconds =       0.02 minutes
	system time =       0.01 seconds =       0.00 minutes
	total time  =          1 seconds =       0.02 minutes
Total time:
	user time   =       8.76 seconds =       0.15 minutes
	system time =       0.12 seconds =       0.00 minutes
	total time  =          3 seconds =       0.05 minutes

*** tstart() called on acer-mis
*** at Sat Aug  3 15:09:15 2019


         ------------------------------------------------------------
                                   SCF GRAD                          
                          Rob Parrish, Justin Turney,                
                       Andy Simmonett, and Alex Sokolov              
         ------------------------------------------------------------

  ==> Geometry <==

    Molecular point group: c1
    Full point group: C1

    Geometry (in Angstrom), charge = 0, multiplicity = 1:

       Center              X                  Y                   Z               Mass       
    ------------   -----------------  -----------------  -----------------  -----------------
         C            1.067714364522    -0.266626657512    -0.005952500756    12.000000000000
         C            1.919416816572     0.916927055527    -0.419126591540    12.000000000000
         O            1.516491887490     1.315111448523    -1.704613689852    15.994914619570
         H            0.019271830049     0.009790289244     0.003231329566     1.007825032230
         H            1.197216066981    -1.085060713307    -0.705197786337     1.007825032230
         H            1.344601632514    -0.610321443119     0.986005012729     1.007825032230
         H            2.971742896849     0.638691308488    -0.416853611725     1.007825032230
         H            1.795098683087     1.732565510762     0.290858486694     1.007825032230
         H            2.035445821935     2.055023201395    -1.986050648779     1.007825032230

  Nuclear repulsion =   82.416734652184260

  ==> Basis Set <==

  Basis Set: 6-31G*
    Blend: 6-31G*
    Number of shells: 30
    Number of basis function: 57
    Number of Cartesian functions: 57
    Spherical Harmonics?: false
    Max angular momentum: 2

  ==> DFJKGrad: Density-Fitted SCF Gradients <==

    Gradient:                    1
    J tasked:                  Yes
    K tasked:                  Yes
    wK tasked:                  No
    OpenMP threads:              4
    Integrals threads:           4
    Memory [MiB]:             8583
    Schwarz Cutoff:          0E+00
    Fitting Condition:       1E-10

   => Auxiliary Basis Set <=

  Basis Set: (6-31G* AUX)
    Blend: CC-PVDZ-JKFIT
    Number of shells: 126
    Number of basis function: 393
    Number of Cartesian functions: 393
    Spherical Harmonics?: false
    Max angular momentum: 3


  -Total Gradient:
     Atom            X                  Y                   Z
    ------   -----------------  -----------------  -----------------
       1        0.000093767502    -0.000022846628     0.000038659676
       2       -0.000014695940    -0.000065824838     0.000101931597
       3        0.000009699501     0.000076119417    -0.000110376587
       4       -0.000051391849     0.000050041911    -0.000005549105
       5        0.000025424153     0.000024205866    -0.000040209251
       6       -0.000019371435    -0.000032167146     0.000058411698
       7       -0.000012456605    -0.000000785361    -0.000030066748
       8       -0.000012488281     0.000000596831    -0.000023833901
       9       -0.000018487046    -0.000029340054     0.000011032625


*** tstop() called on acer-mis at Sat Aug  3 15:09:15 2019
Module time:
	user time   =       0.98 seconds =       0.02 minutes
	system time =       0.01 seconds =       0.00 minutes
	total time  =          0 seconds =       0.00 minutes
Total time:
	user time   =       9.74 seconds =       0.16 minutes
	system time =       0.13 seconds =       0.00 minutes
	total time  =          3 seconds =       0.05 minutes

			-----------------------------------------
			 OPTKING 2.0: for geometry optimizations 
			  - R.A. King,  Bethel University        
			-----------------------------------------

	Previous internal coordinate definitions found.
[...]
    Mask sparsity (%):       0.0000
    Fitting Condition:        1E-10

   => Auxiliary Basis Set <=

  Basis Set: (CC-PV(D+D)Z AUX)
    Blend: CC-PVDZ-JKFIT
    Number of shells: 126
    Number of basis function: 348
    Number of Cartesian functions: 393
    Spherical Harmonics?: true
    Max angular momentum: 3

  Cached 100.0% of DFT collocation blocks in 0.943 [GiB].

  Minimum eigenvalue in the overlap matrix is 6.1004439359E-03.
  Using Symmetric Orthogonalization.

  SCF Guess: Orbitals guess was supplied from a previous computation.

  ==> Iterations <==

                           Total Energy        Delta E     RMS |[F,P]|

   @DF-RKS iter   0:  -155.22198523421110   -1.55222e+02   2.86702e-05 
   @DF-RKS iter   1:  -155.22166472047945    3.20514e-04   5.58859e-06 DIIS
   @DF-RKS iter   2:  -155.22166471268596    7.79349e-09   6.32961e-06 DIIS
   @DF-RKS iter   3:  -155.22166480410345   -9.14175e-08   8.63344e-07 DIIS
   @DF-RKS iter   4:  -155.22166480536222   -1.25877e-09   2.48097e-07 DIIS
   @DF-RKS iter   5:  -155.22166480548560   -1.23379e-10   5.99912e-08 DIIS
   @DF-RKS iter   6:  -155.22166480549495   -9.35074e-12   6.83953e-09 DIIS
  Energy and wave function converged.


  ==> Post-Iterations <==

    Orbital Energies [Eh]
    ---------------------

    Doubly Occupied:                                                      

       1A    -19.294353     2A    -10.346631     3A    -10.292579  
       4A     -1.043926     5A     -0.767593     6A     -0.623798  
       7A     -0.529581     8A     -0.476045     9A     -0.413133  
      10A     -0.392021    11A     -0.373249    12A     -0.340469  
      13A     -0.278906  

    Virtual:                                                              

      14A      0.067863    15A      0.100704    16A      0.131275  
      17A      0.135471    18A      0.153167    19A      0.177876  
      20A      0.222230    21A      0.247738    22A      0.436593  
      23A      0.449946    24A      0.484006    25A      0.532328  
      26A      0.571223    27A      0.591230    28A      0.632946  
      29A      0.648831    30A      0.670397    31A      0.680085  
      32A      0.685685    33A      0.716771    34A      0.904342  
      35A      0.924241    36A      0.970980    37A      1.015002  
      38A      1.077276    39A      1.196793    40A      1.235901  
      41A      1.279697    42A      1.337788    43A      1.359911  
      44A      1.441393    45A      1.518242    46A      1.612128  
      47A      1.621430    48A      1.627258    49A      1.648199  
      50A      1.670805    51A      1.694108    52A      1.714755  
      53A      1.725206    54A      1.825995    55A      1.903932  
      56A      1.945627    57A      1.991176    58A      2.044205  
      59A      2.174811    60A      2.210350    61A      2.237324  
      62A      2.279271    63A      2.423716    64A      2.432257  
      65A      2.467882    66A      2.547561    67A      2.560795  
      68A      2.972958    69A      3.049363    70A      3.105040  
      71A      3.227112    72A      3.716412  

    Final Occupation by Irrep:
              A 
    DOCC [    13 ]

  @DF-RKS Final Energy:  -155.22166480549495

   => Energetics <=

    Nuclear Repulsion Energy =             82.0724890647226459
    One-Electron Energy =                -372.5040870740946843
    Two-Electron Energy =                 151.3080142594340884
    DFT Exchange-Correlation Energy =     -16.0980810555570457
    Empirical Dispersion Energy =           0.0000000000000000
    VV10 Nonlocal Energy =                  0.0000000000000000
    Total Energy =                       -155.2216648054949815

Computation Completed


Properties will be evaluated at   0.000000,   0.000000,   0.000000 [a0]

Properties computed using the SCF density matrix

  Nuclear Dipole Moment: [e a0]
     X:    74.3052      Y:    32.3580      Z:   -34.2358

  Electronic Dipole Moment: [e a0]
     X:   -73.8801      Y:   -32.0691      Z:    34.4960

  Dipole Moment: [e a0]
     X:     0.4251      Y:     0.2889      Z:     0.2603     Total:     0.5761

  Dipole Moment: [D]
     X:     1.0804      Y:     0.7343      Z:     0.6616     Total:     1.4643


*** tstop() called on acer-mis at Sat Aug  3 15:09:29 2019
Module time:
	user time   =       8.09 seconds =       0.13 minutes
	system time =       0.06 seconds =       0.00 minutes
	total time  =          2 seconds =       0.03 minutes
Total time:
	user time   =      64.23 seconds =       1.07 minutes
	system time =       0.81 seconds =       0.01 minutes
	total time  =         17 seconds =       0.28 minutes

*** tstart() called on acer-mis
*** at Sat Aug  3 15:09:29 2019


         ------------------------------------------------------------
                                   SCF GRAD                          
                          Rob Parrish, Justin Turney,                
                       Andy Simmonett, and Alex Sokolov              
         ------------------------------------------------------------

  ==> Geometry <==

    Molecular point group: c1
    Full point group: C1

    Geometry (in Angstrom), charge = 0, multiplicity = 1:

       Center              X                  Y                   Z               Mass       
    ------------   -----------------  -----------------  -----------------  -----------------
         C            1.070959595672    -0.262157370340    -0.007382291746    12.000000000000
         C            1.916623605152     0.916404739369    -0.423069224026    12.000000000000
         O            1.502241767908     1.306541646157    -1.715261213210    15.994914619570
         H            0.010285984543     0.015237153640     0.000880470937     1.007825032230
         H            1.199506087895    -1.090311041802    -0.714263982639     1.007825032230
         H            1.349557163614    -0.610340153168     0.994159346913     1.007825032230
         H            2.984348081260     0.633061236956    -0.412447877888     1.007825032230
         H            1.794028258776     1.739632037730     0.303359872422     1.007825032230
         H            2.039449455181     2.058031751458    -1.983675100764     1.007825032230

  Nuclear repulsion =   82.072489064722646

  ==> Basis Set <==

  Basis Set: CC-PV(D+D)Z
    Blend: CC-PV(D+D)Z
    Number of shells: 36
    Number of basis function: 72
    Number of Cartesian functions: 75
    Spherical Harmonics?: true
    Max angular momentum: 2

  ==> DFJKGrad: Density-Fitted SCF Gradients <==

    Gradient:                    1
    J tasked:                  Yes
    K tasked:                  Yes
    wK tasked:                  No
    OpenMP threads:              4
    Integrals threads:           4
    Memory [MiB]:             8583
    Schwarz Cutoff:          0E+00
    Fitting Condition:       1E-10

   => Auxiliary Basis Set <=

  Basis Set: (CC-PV(D+D)Z AUX)
    Blend: CC-PVDZ-JKFIT
    Number of shells: 126
    Number of basis function: 348
    Number of Cartesian functions: 393
    Spherical Harmonics?: true
    Max angular momentum: 3

  ==> DFT Potential <==

   => Composite Functional: PW6B95 <= 

    PW6B95 Hybrid Meta-GGA XC Functional

    Y. Zhao and D. Truhlar, J. Phys. Chem. A., 109,5656-5667, 2005


    Deriv               =              1
    GGA                 =           TRUE
    Meta                =           TRUE

    Exchange Hybrid     =           TRUE
    MP2 Hybrid          =          FALSE

   => Exchange Functionals <=

    0.7200    XC_GGA_X_PW91

   => Exact (HF) Exchange <=

    0.2800               HF 

   => Correlation Functionals <=

    1.0000   XC_MGGA_C_BC95

   => Molecular Quadrature <=

    Radial Scheme          =       TREUTLER
    Pruning Scheme         =           FLAT
    Nuclear Scheme         =       TREUTLER

    BS radius alpha        =              1
    Pruning alpha          =              1
    Radial Points          =             75
    Spherical Points       =            302
    Total Points           =         200501
    Total Blocks           =           1573
    Max Points             =            256
    Max Functions          =             72


  -Total Gradient:
     Atom            X                  Y                   Z
    ------   -----------------  -----------------  -----------------
       1       -0.000040959254    -0.000066863475     0.000035174055
       2       -0.000067523721     0.000085581047    -0.000244634135
       3        0.000009908629    -0.000112236708     0.000190027224
       4        0.000007201223     0.000000481244     0.000002929076
       5        0.000002710501     0.000004664220     0.000005635069
       6        0.000011962890     0.000011781471     0.000001711174
       7        0.000026519588     0.000001067885     0.000018046807
       8        0.000013327594     0.000013335788     0.000025999665
       9        0.000047408044     0.000064468326    -0.000020859268


*** tstop() called on acer-mis at Sat Aug  3 15:09:30 2019
Module time:
	user time   =       2.72 seconds =       0.05 minutes
	system time =       0.02 seconds =       0.00 minutes
	total time  =          1 seconds =       0.02 minutes
Total time:
	user time   =      66.96 seconds =       1.12 minutes
	system time =       0.83 seconds =       0.01 minutes
	total time  =         18 seconds =       0.30 minutes

			-----------------------------------------
			 OPTKING 2.0: for geometry optimizations 
			  - R.A. King,  Bethel University        
			-----------------------------------------

	Previous internal coordinate definitions found.
	---Fragment 1 Geometry and Gradient---
	 C           2.0238203273       -0.4954056317       -0.0139505096
	 C           3.6218936993        1.7317539775       -0.7994849655
	 O           2.8388255156        2.4690058827       -3.2413739266
	 H           0.0194376937        0.0287940473        0.0016638489
	 H           2.2667379919       -2.0603892606       -1.3497633085
	 H           2.5502934299       -1.1533757329        1.8786888907
	 H           5.6396005366        1.1963123585       -0.7794135302
	 H           3.3902220704        3.2874281104        0.5732670763
	 H           3.8540009170        3.8891163678       -3.7486026623
	            -0.0000409593       -0.0000668635        0.0000351741
	            -0.0000675237        0.0000855810       -0.0002446341
	             0.0000099086       -0.0001122367        0.0001900272
	             0.0000072012        0.0000004812        0.0000029291
	             0.0000027105        0.0000046642        0.0000056351
	             0.0000119629        0.0000117815        0.0000017112
	             0.0000265196        0.0000010679        0.0000180468
	             0.0000133276        0.0000133358        0.0000259997
	             0.0000474080        0.0000644683       -0.0000208593

	---Fragment 1 Intrafragment Coordinates---
	 - Coordinate -           - BOHR/RAD -       - ANG/DEG -
	 R(1,2)           =         2.851516	       1.508957
	 R(1,4)           =         2.071854	       1.096378
	 R(1,5)           =         2.071854	       1.096378
	 R(1,6)           =         2.071758	       1.096327
	 R(2,3)           =         2.668250	       1.411977
	 R(2,7)           =         2.087640	       1.104732
	 R(2,8)           =         2.087640	       1.104732
	 R(3,9)           =         1.817849	       0.961964
	 B(1,2,3)         =         1.879101	     107.664530
	 B(1,2,7)         =         1.916314	     109.796692
	 B(1,2,8)         =         1.916314	     109.796686
	 B(2,1,4)         =         1.924786	     110.282114
	 B(2,1,5)         =         1.924786	     110.282128
	 B(2,1,6)         =         1.936170	     110.934382
	 B(2,3,9)         =         1.883166	     107.897491
	 B(3,2,7)         =         1.942616	     111.303694
	 B(3,2,8)         =         1.942616	     111.303694
	 B(4,1,5)         =         1.885358	     108.023046
	 B(4,1,6)         =         1.895800	     108.621326
	 B(5,1,6)         =         1.895800	     108.621341
	 B(7,2,8)         =         1.867176	     106.981283
	 D(1,2,3,9)       =         3.141593	     180.000000
	 D(3,2,1,4)       =        -1.040426	     -59.611998
	 D(3,2,1,5)       =         1.040428	      59.612106
	 D(3,2,1,6)       =         3.141593	     180.000000
	 D(4,1,2,7)       =         3.125264	     179.064458
	 D(4,1,2,8)       =         1.077070	      61.711541
	 D(5,1,2,7)       =        -1.077068	     -61.711438
	 D(5,1,2,8)       =        -3.125263	    -179.064355
	 D(6,1,2,7)       =         1.024099	      58.676524
	 D(6,1,2,8)       =        -1.024096	     -58.676393
	 D(7,2,3,9)       =        -1.040603	     -59.622139
	 D(8,2,3,9)       =         1.040608	      59.622472

	Current energy   :      -155.2216648055

	Energy change for the previous step:
		Projected    :        -0.0000015494
		Actual       :        -0.0000009465

	Performing BFGS update.
	Previous computed or guess Hessian on step 1.
	Steps to be used in Hessian update: 3 2
	Taking RFO optimization step.
	Going to follow RFO solution 1.
	Using RFO vector 1.
	Norm of target step-size    0.00111
	Projected energy change by RFO approximation:        -0.0000002090

	Back-transformation to cartesian coordinates...
	Could not converge backtransformation.
	Using first guess instead.

	--- Internal Coordinate Step in ANG or DEG, aJ/ANG or AJ/DEG ---
	 ---------------------------------------------------------------------------
	   Coordinate                Previous        Force       Change         New 
	   ----------                --------       ------       ------       ------
	    1 R(1,2)          =      1.508957    -0.000540    -0.000164     1.508793
	    2 R(1,4)          =      1.096378     0.000038     0.000007     1.096384
	    3 R(1,5)          =      1.096378     0.000038     0.000007     1.096384
	    4 R(1,6)          =      1.096327     0.000022    -0.000000     1.096327
	    5 R(2,3)          =      1.411977     0.001532     0.000331     1.412308
	    6 R(2,7)          =      1.104732    -0.000205    -0.000058     1.104674
	    7 R(2,8)          =      1.104732    -0.000205    -0.000058     1.104674
	    8 R(3,9)          =      0.961964    -0.000699    -0.000078     0.961887
	    9 B(1,2,3)        =    107.664530    -0.000002    -0.012668   107.651862
	   10 B(1,2,7)        =    109.796692     0.000001     0.010797   109.807489
	   11 B(1,2,8)        =    109.796686     0.000001     0.010847   109.807533
	   12 B(2,1,4)        =    110.282114     0.000000     0.000352   110.282466
	   13 B(2,1,5)        =    110.282128     0.000000     0.000348   110.282476
	   14 B(2,1,6)        =    110.934382     0.000001     0.013066   110.947447
	   15 B(2,3,9)        =    107.897491     0.000001    -0.001238   107.896254
	   16 B(3,2,7)        =    111.303694     0.000000    -0.010648   111.293046
	   17 B(3,2,8)        =    111.303694     0.000000    -0.010654   111.293040
	   18 B(4,1,5)        =    108.023046    -0.000000    -0.004892   108.018154
	   19 B(4,1,6)        =    108.621326    -0.000001    -0.004743   108.616584
	   20 B(5,1,6)        =    108.621341    -0.000001    -0.004751   108.616589
	   21 B(7,2,8)        =    106.981283     0.000001     0.013056   106.994339
	   22 D(1,2,3,9)      =    180.000000    -0.000000     0.000000   180.000000
	   23 D(3,2,1,4)      =    -59.611998     0.000000     0.002753   -59.609245
	   24 D(3,2,1,5)      =     59.612106    -0.000000    -0.002863    59.609243
	   25 D(3,2,1,6)      =    180.000000    -0.000000     0.000000   180.000000
	   26 D(4,1,2,7)      =    179.064458     0.000000     0.017111   179.081569
	   27 D(4,1,2,8)      =     61.711541    -0.000000    -0.011581    61.699960
	   28 D(5,1,2,7)      =    -61.711438     0.000000     0.011494   -61.699944
	   29 D(5,1,2,8)      =   -179.064355    -0.000000    -0.017198  -179.081553
	   30 D(6,1,2,7)      =     58.676524     0.000000     0.014296    58.690820
	   31 D(6,1,2,8)      =    -58.676393    -0.000000    -0.014396   -58.690789
	   32 D(7,2,3,9)      =    -59.622139    -0.000000    -0.001291   -59.623431
	   33 D(8,2,3,9)      =     59.622472     0.000000     0.001026    59.623498
	 ---------------------------------------------------------------------------
	Successfully symmetrized geometry.

  ==> Convergence Check <==

  Measures of convergence in internal coordinates in au.
  Criteria marked as inactive (o), active & met (*), and active & unmet ( ).
  ---------------------------------------------------------------------------------------------
   Step     Total Energy     Delta E     MAX Force     RMS Force      MAX Disp      RMS Disp   
  ---------------------------------------------------------------------------------------------
    Convergence Criteria    1.00e-06 *    3.00e-04 *             o    1.20e-03 *             o
  ---------------------------------------------------------------------------------------------
      4    -155.22166481   -9.46e-07 *    1.86e-04 *    3.88e-05 o    6.26e-04 *    1.94e-04 o  ~
  ---------------------------------------------------------------------------------------------


  **** Optimization is complete! (in 4 steps) ****

  ==> Optimization Summary <==

  Measures of convergence in internal coordinates in au.
  --------------------------------------------------------------------------------------------------------------- ~
   Step         Total Energy             Delta E       MAX Force       RMS Force        MAX Disp        RMS Disp  ~
  --------------------------------------------------------------------------------------------------------------- ~
      1    -155.221114652095   -155.221114652095      0.01755405      0.00375570      0.02986369      0.01028408  ~
      2    -155.221651455741     -0.000536803646      0.00127736      0.00038681      0.00461862      0.00240514  ~
      3    -155.221663859015     -0.000012403274      0.00047096      0.00014038      0.00129617      0.00037998  ~
      4    -155.221664805495     -0.000000946480      0.00018591      0.00003876      0.00062580      0.00019385  ~
  --------------------------------------------------------------------------------------------------------------- ~

	Writing optimization data to binary file.
	Final energy is   -155.2216648054950
	Final (previous) structure:
	Cartesian Geometry (in Angstrom)
	    C     1.0709595915  -0.2621573693  -0.0073822917
	    C     1.9166235976   0.9164047358  -0.4230692224
	    O     1.5022417620   1.3065416410  -1.7152612065
	    H     0.0102859845   0.0152371536   0.0008804709
	    H     1.1995060832  -1.0903110375  -0.7142639798
	    H     1.3495571583  -0.6103401508   0.9941593430
	    H     2.9843480695   0.6330612345  -0.4124478763
	    H     1.7940282517   1.7396320309   0.3033598712
	    H     2.0394494472   2.0580317434  -1.9836750930
	Saving final (previous) structure.
			--------------------------
			 OPTKING Finished Execution 
			--------------------------

    Final optimized geometry and variables:
    Molecular point group: c1
    Full point group: C1

    Geometry (in Angstrom), charge = 0, multiplicity = 1:

    C            1.070959595672    -0.262157370340    -0.007382291746
    C            1.916623605152     0.916404739369    -0.423069224026
    O            1.502241767908     1.306541646157    -1.715261213210
    H            0.010285984543     0.015237153640     0.000880470937
    H            1.199506087895    -1.090311041802    -0.714263982639
    H            1.349557163614    -0.610340153168     0.994159346913
    H            2.984348081260     0.633061236956    -0.412447877888
    H            1.794028258776     1.739632037730     0.303359872422
    H            2.039449455181     2.058031751458    -1.983675100764

	Removing binary optimization data file.
	Cleaning optimization helper files.

    Psi4 stopped on: Saturday, 03 August 2019 03:09PM
    Psi4 wall time for execution: 0:00:17.50

*** Psi4 exiting successfully. Buy a developer a beer!
