
    -----------------------------------------------------------------------
          Psi4: An Open-Source Ab Initio Electronic Structure Package
                               Psi4 1.3.2 release

                         Git: Rev {HEAD} ecbda83 


    R. M. Parrish, L. A. Burns, D. G. A. Smith, A. C. Simmonett,
    A. E. DePrince III, E. G. Hohenstein, U. Bozkaya, A. Yu. Sokolov,
    R. Di Remigio, R. M. Richard, J. F. Gonthier, A. M. James,
    H. R. McAlexander, A. Kumar, M. Saitow, X. Wang, B. P. Pritchard,
    P. Verma, H. F. Schaefer III, K. Patkowski, R. A. King, E. F. Valeev,
    F. A. Evangelista, J. M. Turney, T. D. Crawford, and C. D. Sherrill,
    J. Chem. Theory Comput. 13(7) pp 3185--3197 (2017).
    (doi: 10.1021/acs.jctc.7b00174)


                         Additional Contributions by
    P. Kraus, H. Kruse, M. H. Lechner, M. C. Schieber, R. A. Shaw,
    A. Alenaizan, R. Galvelis, Z. L. Glick, S. Lehtola, and J. P. Misiewicz

    -----------------------------------------------------------------------


    Psi4 started on: Thursday, 01 August 2019 12:49PM

    Process ID: 10676
    Host:       michael-HP
    PSIDATADIR: /home/michael/anaconda3/envs/RESP2/share/psi4
    Memory:     500.0 MiB
    Threads:    4
    
  ==> Input File <==

--------------------------------------------------------------------------
memory 12 gb
molecule mol {
noreorient
nocom
    0 1
C          1.06160       -0.26810       -0.00060
C          1.91010        0.91260       -0.42200
O          1.51700        1.32360       -1.72280
H          0.00220        0.00170        0.02400
H          1.19690       -1.10690       -0.69130
H          1.35910       -0.62220        0.99210
H          2.96840        0.63610       -0.44460
H          1.77300        1.74990        0.26870
H          1.65900        0.56520       -2.31290

}
set basis 6-31G*
optimize('HF')
set basis cc-pV(D+d)Z
optimize('HF')
set basis cc-pV(D+d)Z
optimize('PW6B95')

mol.save_xyz_file('ethanol-liquid/ETH-confermers_opt_1.xyz',True)--------------------------------------------------------------------------

  Memory set to  11.176 GiB by Python driver.
gradient() will perform analytic gradient computation.

*** tstart() called on michael-HP
*** at Thu Aug  1 12:49:17 2019

   => Loading Basis Set <=

    Name: 6-31G*
    Role: ORBITAL
    Keyword: BASIS
    atoms 1-2 entry C          line   111 file /home/michael/anaconda3/envs/RESP2/share/psi4/basis/6-31gs.gbs 
    atoms 3   entry O          line   145 file /home/michael/anaconda3/envs/RESP2/share/psi4/basis/6-31gs.gbs 
    atoms 4-9 entry H          line    44 file /home/michael/anaconda3/envs/RESP2/share/psi4/basis/6-31gs.gbs 


         ---------------------------------------------------------
                                   SCF
               by Justin Turney, Rob Parrish, Andy Simmonett
                          and Daniel G. A. Smith
                              RHF Reference
                        4 Threads,  11444 MiB Core
         ---------------------------------------------------------

  ==> Geometry <==

    Molecular point group: c1
    Full point group: C1

    Geometry (in Angstrom), charge = 0, multiplicity = 1:

       Center              X                  Y                   Z               Mass       
    ------------   -----------------  -----------------  -----------------  -----------------
         C            1.061600000000    -0.268100000000    -0.000600000000    12.000000000000
         C            1.910100000000     0.912600000000    -0.422000000000    12.000000000000
         O            1.517000000000     1.323600000000    -1.722800000000    15.994914619570
         H            0.002200000000     0.001700000000     0.024000000000     1.007825032230
         H            1.196900000000    -1.106900000000    -0.691300000000     1.007825032230
         H            1.359100000000    -0.622200000000     0.992100000000     1.007825032230
         H            2.968400000000     0.636100000000    -0.444600000000     1.007825032230
         H            1.773000000000     1.749900000000     0.268700000000     1.007825032230
         H            1.659000000000     0.565200000000    -2.312900000000     1.007825032230

  Running in c1 symmetry.

  Rotational constants: A =      0.51135  B =      0.08972  C =      0.08192 [cm^-1]
  Rotational constants: A =  15329.82427  B =   2689.86411  C =   2456.04524 [MHz]
  Nuclear repulsion =   82.149786199076800

  Charge       = 0
  Multiplicity = 1
  Electrons    = 26
  Nalpha       = 13
  Nbeta        = 13

  ==> Algorithm <==

  SCF Algorithm Type is DF.
  DIIS enabled.
  MOM disabled.
  Fractional occupation disabled.
  Guess Type is SAD.
  Energy threshold   = 1.00e-08
  Density threshold  = 1.00e-08
  Integral threshold = 0.00e+00

  ==> Primary Basis <==

  Basis Set: 6-31G*
    Blend: 6-31G*
    Number of shells: 30
    Number of basis function: 57
    Number of Cartesian functions: 57
    Spherical Harmonics?: false
    Max angular momentum: 2

   => Loading Basis Set <=

    Name: (6-31G* AUX)
    Role: JKFIT
    Keyword: DF_BASIS_SCF
    atoms 1-2 entry C          line   121 file /home/michael/anaconda3/envs/RESP2/share/psi4/basis/cc-pvdz-jkfit.gbs 
    atoms 3   entry O          line   221 file /home/michael/anaconda3/envs/RESP2/share/psi4/basis/cc-pvdz-jkfit.gbs 
    atoms 4-9 entry H          line    51 file /home/michael/anaconda3/envs/RESP2/share/psi4/basis/cc-pvdz-jkfit.gbs 

  ==> Pre-Iterations <==

   -------------------------------------------------------
    Irrep   Nso     Nmo     Nalpha   Nbeta   Ndocc  Nsocc
   -------------------------------------------------------
     A         57      57       0       0       0       0
   -------------------------------------------------------
    Total      57      57      13      13      13       0
   -------------------------------------------------------

  ==> Integral Setup <==

  DFHelper Memory: AOs need 0.011 GiB; user supplied 8.382 GiB. Using in-core AOs.

  ==> MemDFJK: Density-Fitted J/K Matrices <==

    J tasked:                   Yes
    K tasked:                   Yes
    wK tasked:                   No
    OpenMP threads:               4
    Memory [MiB]:              8583
    Algorithm:                 Core
    Schwarz Cutoff:           1E-12
    Mask sparsity (%):       0.0616
    Fitting Condition:        1E-10

   => Auxiliary Basis Set <=

  Basis Set: (6-31G* AUX)
    Blend: CC-PVDZ-JKFIT
    Number of shells: 126
    Number of basis function: 393
    Number of Cartesian functions: 393
    Spherical Harmonics?: false
    Max angular momentum: 3

  Minimum eigenvalue in the overlap matrix is 5.9774246807E-03.
  Using Symmetric Orthogonalization.

  SCF Guess: Superposition of Atomic Densities via on-the-fly atomic UHF.

  ==> Iterations <==

                           Total Energy        Delta E     RMS |[F,P]|

   @DF-RHF iter SAD:  -153.33300709559239   -1.53333e+02   0.00000e+00 
   @DF-RHF iter   1:  -153.98122713019023   -6.48220e-01   7.23865e-03 DIIS
   @DF-RHF iter   2:  -154.05603660789743   -7.48095e-02   3.66615e-03 DIIS
   @DF-RHF iter   3:  -154.07205118685940   -1.60146e-02   6.50302e-04 DIIS
   @DF-RHF iter   4:  -154.07304145112982   -9.90264e-04   1.98682e-04 DIIS
   @DF-RHF iter   5:  -154.07311873432175   -7.72832e-05   4.27199e-05 DIIS
   @DF-RHF iter   6:  -154.07312340998874   -4.67567e-06   8.85537e-06 DIIS
   @DF-RHF iter   7:  -154.07312371171793   -3.01729e-07   2.08998e-06 DIIS
   @DF-RHF iter   8:  -154.07312373014349   -1.84256e-08   6.10996e-07 DIIS
   @DF-RHF iter   9:  -154.07312373157401   -1.43052e-09   1.73055e-07 DIIS
   @DF-RHF iter  10:  -154.07312373168347   -1.09452e-10   4.36816e-08 DIIS
   @DF-RHF iter  11:  -154.07312373169214   -8.66862e-12   1.07519e-08 DIIS
   @DF-RHF iter  12:  -154.07312373169270   -5.68434e-13   2.76713e-09 DIIS
  Energy and wave function converged.


  ==> Post-Iterations <==

    Orbital Energies [Eh]
    ---------------------

    Doubly Occupied:                                                      

       1A    -20.554630     2A    -11.274402     3A    -11.218769  
       4A     -1.350952     5A     -1.011190     6A     -0.844352  
       7A     -0.682450     8A     -0.622527     9A     -0.605382  
      10A     -0.542588    11A     -0.522924    12A     -0.479132  
      13A     -0.436039  

    Virtual:                                                              

      14A      0.218539    15A      0.269685    16A      0.293277  
      17A      0.310381    18A      0.316515    19A      0.342729  
      20A      0.401959    21A      0.419378    22A      0.721702  
      23A      0.753434    24A      0.794536    25A      0.812539  
      26A      0.905220    27A      0.918734    28A      1.069936  
      29A      1.131006    30A      1.152362    31A      1.167810  
      32A      1.183453    33A      1.197185    34A      1.227303  
      35A      1.287935    36A      1.303361    37A      1.429177  
      38A      1.629897    39A      1.707586    40A      1.767781  
      41A      1.848230    42A      2.052802    43A      2.137433  
      44A      2.217306    45A      2.277126    46A      2.420508  
      47A      2.466577    48A      2.561989    49A      2.622438  
      50A      2.714457    51A      2.753791    52A      2.855685  
      53A      2.979198    54A      3.191655    55A      4.150588  
      56A      4.600333    57A      4.818802  

    Final Occupation by Irrep:
              A 
    DOCC [    13 ]

  @DF-RHF Final Energy:  -154.07312373169270

   => Energetics <=

    Nuclear Repulsion Energy =             82.1497861990768001
    One-Electron Energy =                -372.1551473823203651
    Two-Electron Energy =                 135.9322374515508614
    Total Energy =                       -154.0731237316927036

Computation Completed


Properties will be evaluated at   0.000000,   0.000000,   0.000000 [a0]

Properties computed using the SCF density matrix

  Nuclear Dipole Moment: [e a0]
     X:    73.5572      Y:    29.6301      Z:   -34.9259

  Electronic Dipole Moment: [e a0]
     X:   -73.3177      Y:   -30.3050      Z:    35.1497

  Dipole Moment: [e a0]
     X:     0.2395      Y:    -0.6748      Z:     0.2238     Total:     0.7502

  Dipole Moment: [D]
     X:     0.6087      Y:    -1.7152      Z:     0.5688     Total:     1.9068


*** tstop() called on michael-HP at Thu Aug  1 12:49:18 2019
Module time:
	user time   =       3.27 seconds =       0.05 minutes
	system time =       0.06 seconds =       0.00 minutes
	total time  =          1 seconds =       0.02 minutes
Total time:
	user time   =       3.27 seconds =       0.05 minutes
	system time =       0.06 seconds =       0.00 minutes
	total time  =          1 seconds =       0.02 minutes

*** tstart() called on michael-HP
*** at Thu Aug  1 12:49:18 2019


         ------------------------------------------------------------
                                   SCF GRAD                          
                          Rob Parrish, Justin Turney,                
                       Andy Simmonett, and Alex Sokolov              
         ------------------------------------------------------------

  ==> Geometry <==

    Molecular point group: c1
    Full point group: C1

    Geometry (in Angstrom), charge = 0, multiplicity = 1:

       Center              X                  Y                   Z               Mass       
    ------------   -----------------  -----------------  -----------------  -----------------
         C            1.061600000000    -0.268100000000    -0.000600000000    12.000000000000
         C            1.910100000000     0.912600000000    -0.422000000000    12.000000000000
         O            1.517000000000     1.323600000000    -1.722800000000    15.994914619570
         H            0.002200000000     0.001700000000     0.024000000000     1.007825032230
         H            1.196900000000    -1.106900000000    -0.691300000000     1.007825032230
         H            1.359100000000    -0.622200000000     0.992100000000     1.007825032230
         H            2.968400000000     0.636100000000    -0.444600000000     1.007825032230
         H            1.773000000000     1.749900000000     0.268700000000     1.007825032230
         H            1.659000000000     0.565200000000    -2.312900000000     1.007825032230

  Nuclear repulsion =   82.149786199076800

  ==> Basis Set <==

  Basis Set: 6-31G*
    Blend: 6-31G*
    Number of shells: 30
    Number of basis function: 57
    Number of Cartesian functions: 57
    Spherical Harmonics?: false
    Max angular momentum: 2

  ==> DFJKGrad: Density-Fitted SCF Gradients <==

    Gradient:                    1
    J tasked:                  Yes
    K tasked:                  Yes
    wK tasked:                  No
    OpenMP threads:              4
    Integrals threads:           4
    Memory [MiB]:             8583
    Schwarz Cutoff:          0E+00
    Fitting Condition:       1E-10

   => Auxiliary Basis Set <=

  Basis Set: (6-31G* AUX)
    Blend: CC-PVDZ-JKFIT
    Number of shells: 126
    Number of basis function: 393
    Number of Cartesian functions: 393
    Spherical Harmonics?: false
    Max angular momentum: 3


  -Total Gradient:
     Atom            X                  Y                   Z
    ------   -----------------  -----------------  -----------------
       1        0.000749346076     0.008640596623    -0.011598514423
       2        0.001866324926     0.001405503602     0.012567710419
       3       -0.007700559795     0.014728538024     0.004931731156
       4       -0.006810779123     0.001851682521     0.000893180978
       5        0.002047929435    -0.004413762779    -0.002734790512
       6        0.003398311138    -0.001487021040     0.004484277826
       7        0.003939673788    -0.003154931591    -0.005045732704
       8       -0.001690944075     0.003965412176     0.009933450465
       9        0.004200697629    -0.021536017540    -0.013431313203


*** tstop() called on michael-HP at Thu Aug  1 12:49:18 2019
Module time:
	user time   =       2.05 seconds =       0.03 minutes
	system time =       0.05 seconds =       0.00 minutes
	total time  =          0 seconds =       0.00 minutes
Total time:
	user time   =       5.33 seconds =       0.09 minutes
	system time =       0.11 seconds =       0.00 minutes
	total time  =          1 seconds =       0.02 minutes

			-----------------------------------------
			 OPTKING 2.0: for geometry optimizations 
			  - R.A. King,  Bethel University        
			-----------------------------------------

	Internal coordinates to be generated automatically.
	Detected frag 1 with atoms:  1 2 3 4 5 6 7 8 9
	---Fragment 1 Bond Connectivity---
	 1 : 2 4 5 6
	 2 : 1 3 7 8
	 3 : 2 9
	 4 : 1
	 5 : 1
	 6 : 1
	 7 : 2
	 8 : 2
	 9 : 3

	---Fragment 1 Geometry and Gradient---
	 C           2.0061332548       -0.5066355742       -0.0011338357
	 C           3.6095658722        1.7245640621       -0.7974644249
	 O           2.8667145323        2.5012414997       -3.2556201689
	 H           0.0041573975        0.0032125344        0.0453534270
	 H           2.2618131996       -2.0917378483       -1.3063676705
	 H           2.5683267771       -1.1757875953        1.8747972891
	 H           5.6094630308        1.2020547884       -0.8401722354
	 H           3.3504844204        3.3068317469        0.5077694099
	 H           3.1350556421        1.0680732061       -4.3707475556
	             0.0007493461        0.0086405966       -0.0115985144
	             0.0018663249        0.0014055036        0.0125677104
	            -0.0077005598        0.0147285380        0.0049317312
	            -0.0068107791        0.0018516825        0.0008931810
	             0.0020479294       -0.0044137628       -0.0027347905
	             0.0033983111       -0.0014870210        0.0044842778
	             0.0039396738       -0.0031549316       -0.0050457327
	            -0.0016909441        0.0039654122        0.0099334505
	             0.0042006976       -0.0215360175       -0.0134313132

	Previous optimization step data not found.  Starting new optimization.

	---Fragment 1 Intrafragment Coordinates---
	 - Coordinate -           - BOHR/RAD -       - ANG/DEG -
	 R(1,2)           =         2.860663	       1.513797
	 R(1,4)           =         2.066401	       1.093492
	 R(1,5)           =         2.069192	       1.094969
	 R(1,6)           =         2.069527	       1.095147
	 R(2,3)           =         2.682832	       1.419693
	 R(2,7)           =         2.067469	       1.094058
	 R(2,8)           =         2.067445	       1.094045
	 R(3,9)           =         1.835616	       0.971366
	 B(1,2,3)         =         1.902503	     109.005407
	 B(1,2,7)         =         1.929247	     110.537701
	 B(1,2,8)         =         1.929369	     110.544679
	 B(2,1,4)         =         1.935697	     110.907292
	 B(2,1,5)         =         1.931178	     110.648339
	 B(2,1,6)         =         1.930777	     110.625373
	 B(2,3,9)         =         1.865142	     106.864781
	 B(3,2,7)         =         1.898721	     108.788685
	 B(3,2,8)         =         1.898845	     108.795812
	 B(4,1,5)         =         1.899602	     108.839152
	 B(4,1,6)         =         1.899238	     108.818345
	 B(5,1,6)         =         1.865575	     106.889558
	 B(7,2,8)         =         1.904644	     109.128035
	 D(1,2,3,9)       =        -1.047230	     -60.001871
	 D(3,2,1,4)       =        -1.055455	     -60.473093
	 D(3,2,1,5)       =         1.054434	      60.414598
	 D(3,2,1,6)       =         3.118569	     178.680852
	 D(4,1,2,7)       =        -3.141562	    -179.998237
	 D(4,1,2,8)       =         1.030880	      59.065052
	 D(5,1,2,7)       =        -1.031674	     -59.110546
	 D(5,1,2,8)       =         3.140768	     179.952744
	 D(6,1,2,7)       =         1.032462	      59.155707
	 D(6,1,2,8)       =        -1.078282	     -61.781003
	 D(7,2,3,9)       =         1.057721	      60.602977
	 D(8,2,3,9)       =         3.130781	     179.380513

	Current energy   :      -154.0731237317

	Generating empirical Hessian (Schlegel '84) for each fragment.
	Taking RFO optimization step.
	Going to follow RFO solution 1.
	Using RFO vector 1.
	Norm of target step-size    0.20975
	Projected energy change by RFO approximation:        -0.0029774332

	Back-transformation to cartesian coordinates...
	Could not converge backtransformation.
	Using first guess instead.

	--- Internal Coordinate Step in ANG or DEG, aJ/ANG or AJ/DEG ---
	 ---------------------------------------------------------------------------
	   Coordinate                Previous        Force       Change         New 
	   ----------                --------       ------       ------       ------
	    1 R(1,2)          =      1.513797     0.047203     0.010630     1.524428
	    2 R(1,4)          =      1.093492    -0.058292    -0.010524     1.082969
	    3 R(1,5)          =      1.094969    -0.044154    -0.007446     1.087523
	    4 R(1,6)          =      1.095147    -0.045056    -0.007499     1.087648
	    5 R(2,3)          =      1.419693    -0.055909    -0.006377     1.413317
	    6 R(2,7)          =      1.094058    -0.038825    -0.006190     1.087868
	    7 R(2,8)          =      1.094045    -0.078416    -0.013860     1.080185
	    8 R(3,9)          =      0.971366    -0.210812    -0.021525     0.949841
	    9 B(1,2,3)        =    109.005407     0.001138     4.241860   113.247267
	   10 B(1,2,7)        =    110.537701    -0.000240     0.255493   110.793194
	   11 B(1,2,8)        =    110.544679    -0.000001    -0.309631   110.235048
	   12 B(2,1,4)        =    110.907292    -0.000080    -0.712472   110.194820
	   13 B(2,1,5)        =    110.648339     0.000023     0.158713   110.807052
	   14 B(2,1,6)        =    110.625373     0.000194     1.154172   111.779545
	   15 B(2,3,9)        =    106.864781     0.000367     1.795715   108.660496
	   16 B(3,2,7)        =    108.788685    -0.000080     1.998330   110.787015
	   17 B(3,2,8)        =    108.795812    -0.000774    -4.572431   104.223381
	   18 B(4,1,5)        =    108.839152    -0.000053    -0.735171   108.103981
	   19 B(4,1,6)        =    108.818345    -0.000068    -0.357885   108.460460
	   20 B(5,1,6)        =    106.889558    -0.000018     0.476601   107.366159
	   21 B(7,2,8)        =    109.128035    -0.000055    -1.931135   107.196900
	   22 D(1,2,3,9)      =    -60.001871    -0.000014    -3.705456   -63.707327
	   23 D(3,2,1,4)      =    -60.473093     0.000063     4.092648   -56.380445
	   24 D(3,2,1,5)      =     60.414598     0.000039     2.806984    63.221582
	   25 D(3,2,1,6)      =    178.680852     0.000065     4.255298   182.936149
	   26 D(4,1,2,7)      =   -179.998237    -0.000044    -1.572107  -181.570345
	   27 D(4,1,2,8)      =     59.065052     0.000008     0.872736    59.937789
	   28 D(5,1,2,7)      =    -59.110546    -0.000068    -2.857771   -61.968318
	   29 D(5,1,2,8)      =    179.952744    -0.000016    -0.412928   179.539816
	   30 D(6,1,2,7)      =     59.155707    -0.000042    -1.409458    57.746249
	   31 D(6,1,2,8)      =    -61.781003     0.000011     1.035385   -60.745617
	   32 D(7,2,3,9)      =     60.602977     0.000064     0.882923    61.485900
	   33 D(8,2,3,9)      =    179.380513    -0.000064    -2.904468   176.476045
	 ---------------------------------------------------------------------------
	Successfully symmetrized geometry.

  ==> Convergence Check <==

  Measures of convergence in internal coordinates in au.
  Criteria marked as inactive (o), active & met (*), and active & unmet ( ).
  --------------------------------------------------------------------------------------------- ~
   Step     Total Energy     Delta E     MAX Force     RMS Force      MAX Disp      RMS Disp    ~
  --------------------------------------------------------------------------------------------- ~
    Convergence Criteria    1.00e-06 *    3.00e-04 *             o    1.20e-03 *             o  ~
  --------------------------------------------------------------------------------------------- ~
      1    -154.07312373   -1.54e+02      2.56e-02      6.55e-03 o    7.98e-02      3.67e-02 o  ~
  ---------------------------------------------------------------------------------------------

	Writing optimization data to binary file.
	Structure for next step:
	Cartesian Geometry (in Angstrom)
	    C     1.0611924710  -0.2940744965   0.0270002234
	    C     1.9076057712   0.8804980086  -0.4503299225
	    O     1.5280697321   1.3602195894  -1.7244114971
	    H     0.0129774652  -0.0219656138   0.0318267549
	    H     1.1847037357  -1.1515948079  -0.6303505207
	    H     1.3393953194  -0.6108640012   1.0296093110
	    H     2.9653039566   0.6266872694  -0.4327025460
	    H     1.7718686944   1.7291270182   0.2040421888
	    H     1.6761828015   0.6738670213  -2.3640839749
			--------------------------
			 OPTKING Finished Execution 
			--------------------------

    Structure for next step:
    Molecular point group: c1
    Full point group: C1

    Geometry (in Angstrom), charge = 0, multiplicity = 1:

    C            1.061192475206    -0.294074497702     0.027000223524
    C            1.907605778746     0.880498012053    -0.450329924223
    O            1.528069738071     1.360219594748    -1.724411503873
    H            0.012977465299    -0.021965613912     0.031826755067
    H            1.184703740391    -1.151594812442    -0.630350523203
    H            1.339395324657    -0.610864003637     1.029609315006
    H            2.965303968206     0.626687271910    -0.432702547655
    H            1.771868701354     1.729127025002     0.204042189599
    H            1.676182808070     0.673867023981    -2.364083984241

gradient() will perform analytic gradient computation.

*** tstart() called on michael-HP
*** at Thu Aug  1 12:49:18 2019

   => Loading Basis Set <=

    Name: 6-31G*
    Role: ORBITAL
    Keyword: BASIS
    atoms 1-2 entry C          line   111 file /home/michael/anaconda3/envs/RESP2/share/psi4/basis/6-31gs.gbs 
    atoms 3   entry O          line   145 file /home/michael/anaconda3/envs/RESP2/share/psi4/basis/6-31gs.gbs 
    atoms 4-9 entry H          line    44 file /home/michael/anaconda3/envs/RESP2/share/psi4/basis/6-31gs.gbs 


         ---------------------------------------------------------
                                   SCF
               by Justin Turney, Rob Parrish, Andy Simmonett
                          and Daniel G. A. Smith
                              RHF Reference
                        4 Threads,  11444 MiB Core
         ---------------------------------------------------------

  ==> Geometry <==

    Molecular point group: c1
    Full point group: C1

    Geometry (in Angstrom), charge = 0, multiplicity = 1:

       Center              X                  Y                   Z               Mass       
    ------------   -----------------  -----------------  -----------------  -----------------
         C            1.061192475206    -0.294074497702     0.027000223524    12.000000000000
         C            1.907605778746     0.880498012053    -0.450329924223    12.000000000000
         O            1.528069738071     1.360219594748    -1.724411503873    15.994914619570
         H            0.012977465299    -0.021965613912     0.031826755067     1.007825032230
         H            1.184703740391    -1.151594812442    -0.630350523203     1.007825032230
         H            1.339395324657    -0.610864003637     1.029609315006     1.007825032230
         H            2.965303968206     0.626687271910    -0.432702547655     1.007825032230
         H            1.771868701354     1.729127025002     0.204042189599     1.007825032230
         H            1.676182808070     0.673867023981    -2.364083984241     1.007825032230

  Running in c1 symmetry.

  Rotational constants: A =      0.50862  B =      0.08906  C =      0.08085 [cm^-1]
  Rotational constants: A =  15248.05857  B =   2670.06227  C =   2423.83608 [MHz]
  Nuclear repulsion =   81.962394420485424

  Charge       = 0
  Multiplicity = 1
  Electrons    = 26
  Nalpha       = 13
  Nbeta        = 13

  ==> Algorithm <==

  SCF Algorithm Type is DF.
  DIIS enabled.
  MOM disabled.
  Fractional occupation disabled.
  Guess Type is READ.
  Energy threshold   = 1.00e-08
  Density threshold  = 1.00e-08
  Integral threshold = 0.00e+00

  ==> Primary Basis <==

  Basis Set: 6-31G*
    Blend: 6-31G*
    Number of shells: 30
    Number of basis function: 57
    Number of Cartesian functions: 57
    Spherical Harmonics?: false
    Max angular momentum: 2

   => Loading Basis Set <=

    Name: (6-31G* AUX)
    Role: JKFIT
    Keyword: DF_BASIS_SCF
    atoms 1-2 entry C          line   121 file /home/michael/anaconda3/envs/RESP2/share/psi4/basis/cc-pvdz-jkfit.gbs 
    atoms 3   entry O          line   221 file /home/michael/anaconda3/envs/RESP2/share/psi4/basis/cc-pvdz-jkfit.gbs 
    atoms 4-9 entry H          line    51 file /home/michael/anaconda3/envs/RESP2/share/psi4/basis/cc-pvdz-jkfit.gbs 

   => Loading Basis Set <=

    Name: 6-31G*
    Role: ORBITAL
    Keyword: BASIS
    atoms 1-2 entry C          line   111 file /home/michael/anaconda3/envs/RESP2/share/psi4/basis/6-31gs.gbs 
    atoms 3   entry O          line   145 file /home/michael/anaconda3/envs/RESP2/share/psi4/basis/6-31gs.gbs 
    atoms 4-9 entry H          line    44 file /home/michael/anaconda3/envs/RESP2/share/psi4/basis/6-31gs.gbs 

  Reading orbitals from file 180, no projection.

  ==> Pre-Iterations <==

   -------------------------------------------------------
    Irrep   Nso     Nmo     Nalpha   Nbeta   Ndocc  Nsocc
   -------------------------------------------------------
     A         57      57       0       0       0       0
   -------------------------------------------------------
    Total      57      57      13      13      13       0
   -------------------------------------------------------

  ==> Integral Setup <==

  DFHelper Memory: AOs need 0.011 GiB; user supplied 8.382 GiB. Using in-core AOs.

  ==> MemDFJK: Density-Fitted J/K Matrices <==

    J tasked:                   Yes
    K tasked:                   Yes
    wK tasked:                   No
    OpenMP threads:               4
    Memory [MiB]:              8583
    Algorithm:                 Core
    Schwarz Cutoff:           1E-12
    Mask sparsity (%):       0.0616
    Fitting Condition:        1E-10

   => Auxiliary Basis Set <=

  Basis Set: (6-31G* AUX)
    Blend: CC-PVDZ-JKFIT
    Number of shells: 126
    Number of basis function: 393
    Number of Cartesian functions: 393
    Spherical Harmonics?: false
    Max angular momentum: 3

  Minimum eigenvalue in the overlap matrix is 6.0203092898E-03.
  Using Symmetric Orthogonalization.

  SCF Guess: Orbitals guess was supplied from a previous computation.

  ==> Iterations <==

                           Total Energy        Delta E     RMS |[F,P]|

   @DF-RHF iter   0:  -154.09980000629758   -1.54100e+02   2.10576e-03 
   @DF-RHF iter   1:  -154.07490210604041    2.48979e-02   3.08751e-04 DIIS
   @DF-RHF iter   2:  -154.07517782708922   -2.75721e-04   1.14718e-04 DIIS
   @DF-RHF iter   3:  -154.07522304960614   -4.52225e-05   4.03548e-05 DIIS
   @DF-RHF iter   4:  -154.07522823332806   -5.18372e-06   9.18120e-06 DIIS
   @DF-RHF iter   5:  -154.07522859120729   -3.57879e-07   2.63501e-06 DIIS
   @DF-RHF iter   6:  -154.07522862373190   -3.25246e-08   7.50861e-07 DIIS
   @DF-RHF iter   7:  -154.07522862600976   -2.27786e-09   3.06844e-07 DIIS
   @DF-RHF iter   8:  -154.07522862626587   -2.56108e-10   7.31153e-08 DIIS
   @DF-RHF iter   9:  -154.07522862628474   -1.88720e-11   1.67415e-08 DIIS
   @DF-RHF iter  10:  -154.07522862628576   -1.02318e-12   5.55563e-09 DIIS
  Energy and wave function converged.


  ==> Post-Iterations <==

    Orbital Energies [Eh]
    ---------------------

    Doubly Occupied:                                                      

       1A    -20.554334     2A    -11.271211     3A    -11.216362  
       4A     -1.356883     5A     -1.011898     6A     -0.850872  
       7A     -0.687865     8A     -0.621162     9A     -0.604852  
      10A     -0.544653    11A     -0.525411    12A     -0.478885  
      13A     -0.438007  

    Virtual:                                                              

      14A      0.223167    15A      0.273221    16A      0.297653  
      17A      0.310558    18A      0.318581    19A      0.342534  
      20A      0.403943    21A      0.425201    22A      0.728966  
      23A      0.747824    24A      0.789216    25A      0.814968  
      26A      0.896721    27A      0.916504    28A      1.079964  
      29A      1.140269    30A      1.163367    31A      1.184510  
      32A      1.186404    33A      1.205065    34A      1.237553  
      35A      1.285391    36A      1.303540    37A      1.425489  
      38A      1.611100    39A      1.727805    40A      1.791483  
      41A      1.839411    42A      2.034003    43A      2.103344  
      44A      2.219896    45A      2.275793    46A      2.440096  
      47A      2.477192    48A      2.549677    49A      2.639128  
      50A      2.708023    51A      2.762632    52A      2.882479  
      53A      2.998985    54A      3.193732    55A      4.156244  
      56A      4.599641    57A      4.822402  

    Final Occupation by Irrep:
              A 
    DOCC [    13 ]

  @DF-RHF Final Energy:  -154.07522862628576

   => Energetics <=

    Nuclear Repulsion Energy =             81.9623944204854240
    One-Electron Energy =                -371.7504548734089553
    Two-Electron Energy =                 135.7128318266377960
    Total Energy =                       -154.0752286262857638

Computation Completed


Properties will be evaluated at   0.000000,   0.000000,   0.000000 [a0]

Properties computed using the SCF density matrix

  Nuclear Dipole Moment: [e a0]
     X:    73.6762      Y:    29.5658      Z:   -34.9541

  Electronic Dipole Moment: [e a0]
     X:   -73.4393      Y:   -30.2393      Z:    35.1163

  Dipole Moment: [e a0]
     X:     0.2369      Y:    -0.6735      Z:     0.1622     Total:     0.7321

  Dipole Moment: [D]
     X:     0.6023      Y:    -1.7118      Z:     0.4123     Total:     1.8609


*** tstop() called on michael-HP at Thu Aug  1 12:49:19 2019
Module time:
	user time   =       1.94 seconds =       0.03 minutes
	system time =       0.04 seconds =       0.00 minutes
	total time  =          1 seconds =       0.02 minutes
Total time:
	user time   =       7.36 seconds =       0.12 minutes
	system time =       0.15 seconds =       0.00 minutes
	total time  =          2 seconds =       0.03 minutes

*** tstart() called on michael-HP
*** at Thu Aug  1 12:49:19 2019


         ------------------------------------------------------------
                                   SCF GRAD                          
                          Rob Parrish, Justin Turney,                
                       Andy Simmonett, and Alex Sokolov              
         ------------------------------------------------------------

  ==> Geometry <==

    Molecular point group: c1
    Full point group: C1

    Geometry (in Angstrom), charge = 0, multiplicity = 1:

       Center              X                  Y                   Z               Mass       
    ------------   -----------------  -----------------  -----------------  -----------------
         C            1.061192475206    -0.294074497702     0.027000223524    12.000000000000
         C            1.907605778746     0.880498012053    -0.450329924223    12.000000000000
         O            1.528069738071     1.360219594748    -1.724411503873    15.994914619570
         H            0.012977465299    -0.021965613912     0.031826755067     1.007825032230
         H            1.184703740391    -1.151594812442    -0.630350523203     1.007825032230
         H            1.339395324657    -0.610864003637     1.029609315006     1.007825032230
         H            2.965303968206     0.626687271910    -0.432702547655     1.007825032230
         H            1.771868701354     1.729127025002     0.204042189599     1.007825032230
         H            1.676182808070     0.673867023981    -2.364083984241     1.007825032230

  Nuclear repulsion =   81.962394420485424

  ==> Basis Set <==

  Basis Set: 6-31G*
    Blend: 6-31G*
    Number of shells: 30
    Number of basis function: 57
    Number of Cartesian functions: 57
    Spherical Harmonics?: false
    Max angular momentum: 2

  ==> DFJKGrad: Density-Fitted SCF Gradients <==

    Gradient:                    1
    J tasked:                  Yes
    K tasked:                  Yes
    wK tasked:                  No
    OpenMP threads:              4
    Integrals threads:           4
    Memory [MiB]:             8583
    Schwarz Cutoff:          0E+00
    Fitting Condition:       1E-10

   => Auxiliary Basis Set <=

  Basis Set: (6-31G* AUX)
    Blend: CC-PVDZ-JKFIT
    Number of shells: 126
    Number of basis function: 393
    Number of Cartesian functions: 393
    Spherical Harmonics?: false
    Max angular momentum: 3


  -Total Gradient:
     Atom            X                  Y                   Z
    ------   -----------------  -----------------  -----------------
       1       -0.001017609637     0.000313739078     0.002876230532
       2        0.002450739984    -0.006162313797     0.001585152346
       3       -0.002415213416     0.009503490067    -0.003324205007
       4        0.001021823646    -0.000109640284     0.000090169579
       5        0.000401452097     0.000103853287     0.000135130681
       6       -0.000975950232    -0.002100728394     0.001191691834
       7        0.000276815703     0.000909287025     0.001068215305
       8       -0.000590888228     0.000237626207    -0.003013867634
       9        0.000848830081    -0.002695313191    -0.000608517632


*** tstop() called on michael-HP at Thu Aug  1 12:49:19 2019
Module time:
	user time   =       1.92 seconds =       0.03 minutes
	system time =       0.05 seconds =       0.00 minutes
	total time  =          0 seconds =       0.00 minutes
Total time:
	user time   =       9.29 seconds =       0.15 minutes
	system time =       0.20 seconds =       0.00 minutes
	total time  =          2 seconds =       0.03 minutes

			-----------------------------------------
			 OPTKING 2.0: for geometry optimizations 
			  - R.A. King,  Bethel University        
			-----------------------------------------

	Previous internal coordinate definitions found.
	---Fragment 1 Geometry and Gradient---
	 C           2.0053631445       -0.5557202611        0.0510230278
	 C           3.6048524772        1.6639000968       -0.8510002229
	 O           2.8876333056        2.5704425046       -3.2586654699
	 H           0.0245238552       -0.0415089945        0.0601438505
	 H           2.2387656091       -2.1761988030       -1.1911898519
	 H           2.5310903373       -1.1543656668        1.9456796216
	 H           5.6036123786        1.1842673102       -0.8176893089
	 H           3.3483465758        3.2675765134        0.3855838564
	 H           3.1675264435        1.2734241203       -4.4674712678
	            -0.0010176096        0.0003137391        0.0028762305
	             0.0024507400       -0.0061623138        0.0015851523
	            -0.0024152134        0.0095034901       -0.0033242050
	             0.0010218236       -0.0001096403        0.0000901696
	             0.0004014521        0.0001038533        0.0001351307
	            -0.0009759502       -0.0021007284        0.0011916918
	             0.0002768157        0.0009092870        0.0010682153
	            -0.0005908882        0.0002376262       -0.0030138676
	             0.0008488301       -0.0026953132       -0.0006085176

	---Fragment 1 Intrafragment Coordinates---
	 - Coordinate -           - BOHR/RAD -       - ANG/DEG -
	 R(1,2)           =         2.880751	       1.524428
	 R(1,4)           =         2.046514	       1.082969
	 R(1,5)           =         2.055120	       1.087523
	 R(1,6)           =         2.055356	       1.087648
	 R(2,3)           =         2.670782	       1.413317
	 R(2,7)           =         2.055772	       1.087868
	 R(2,8)           =         2.041253	       1.080185
	 R(3,9)           =         1.794940	       0.949841
	 B(1,2,3)         =         1.976538	     113.247267
	 B(1,2,7)         =         1.933706	     110.793194
	 B(1,2,8)         =         1.923965	     110.235048
	 B(2,1,4)         =         1.923262	     110.194820
	 B(2,1,5)         =         1.933948	     110.807052
	 B(2,1,6)         =         1.950921	     111.779545
	 B(2,3,9)         =         1.896483	     108.660496
	 B(3,2,7)         =         1.933598	     110.787015
	 B(3,2,8)         =         1.819041	     104.223381
	 B(4,1,5)         =         1.886770	     108.103981
	 B(4,1,6)         =         1.892992	     108.460460
	 B(5,1,6)         =         1.873893	     107.366159
	 B(7,2,8)         =         1.870939	     107.196900
	 D(1,2,3,9)       =        -1.111903	     -63.707327
	 D(3,2,1,4)       =        -0.984024	     -56.380445
	 D(3,2,1,5)       =         1.103425	      63.221582
	 D(3,2,1,6)       =        -3.090347	    -177.063851
	 D(4,1,2,7)       =         3.114185	     178.429655
	 D(4,1,2,8)       =         1.046112	      59.937789
	 D(5,1,2,7)       =        -1.081551	     -61.968318
	 D(5,1,2,8)       =         3.133561	     179.539816
	 D(6,1,2,7)       =         1.007862	      57.746249
	 D(6,1,2,8)       =        -1.060211	     -60.745617
	 D(7,2,3,9)       =         1.073131	      61.485900
	 D(8,2,3,9)       =         3.080088	     176.476045

	Current energy   :      -154.0752286263

	Energy change for the previous step:
		Projected    :        -0.0029774332
		Actual       :        -0.0021048946

	Performing BFGS update.
	Previous computed or guess Hessian on step 1.
	Steps to be used in Hessian update: 1
	Taking RFO optimization step.
	Going to follow RFO solution 1.
	Using RFO vector 1.
	Norm of target step-size    0.06704
	Projected energy change by RFO approximation:        -0.0009144814

	Back-transformation to cartesian coordinates...
	Successfully converged to displaced geometry.

	--- Internal Coordinate Step in ANG or DEG, aJ/ANG or AJ/DEG ---
	 ---------------------------------------------------------------------------
	   Coordinate                Previous        Force       Change         New 
	   ----------                --------       ------       ------       ------
	    1 R(1,2)          =      1.524428    -0.025064    -0.003873     1.520555
	    2 R(1,4)          =      1.082969     0.008372     0.000630     1.083599
	    3 R(1,5)          =      1.087523     0.000972    -0.000423     1.087100
	    4 R(1,6)          =      1.087648    -0.012035    -0.002502     1.085146
	    5 R(2,3)          =      1.413317    -0.051713    -0.007292     1.406025
	    6 R(2,7)          =      1.087868    -0.000612    -0.000634     1.087233
	    7 R(2,8)          =      1.080185     0.012892     0.001075     1.081260
	    8 R(3,9)          =      0.949841    -0.020513    -0.004003     0.945838
	    9 B(1,2,3)        =    113.247267    -0.000367    -0.813933   112.433335
	   10 B(1,2,7)        =    110.793194     0.000052    -0.373208   110.419986
	   11 B(1,2,8)        =    110.235048    -0.000010     0.091450   110.326498
	   12 B(2,1,4)        =    110.194820     0.000045     0.145391   110.340211
	   13 B(2,1,5)        =    110.807052     0.000069     0.357838   111.164890
	   14 B(2,1,6)        =    111.779545    -0.000247    -0.988536   110.791009
	   15 B(2,3,9)        =    108.660496     0.000201     0.889067   109.549563
	   16 B(3,2,7)        =    110.787015     0.000063    -0.333411   110.453605
	   17 B(3,2,8)        =    104.223381     0.000297     1.477273   105.700653
	   18 B(4,1,5)        =    108.103981    -0.000029    -0.000831   108.103150
	   19 B(4,1,6)        =    108.460460     0.000080     0.143397   108.603856
	   20 B(5,1,6)        =    107.366159     0.000089     0.368978   107.735137
	   21 B(7,2,8)        =    107.196900    -0.000005     0.087193   107.284093
	   22 D(1,2,3,9)      =    -63.707327     0.000011    -0.346390   -64.053717
	   23 D(3,2,1,4)      =    -56.380445    -0.000028    -0.891731   -57.272175
	   24 D(3,2,1,5)      =     63.221582    -0.000019    -0.567105    62.654477
	   25 D(3,2,1,6)      =   -177.063851    -0.000020    -0.519128  -177.582979
	   26 D(4,1,2,7)      =    178.429655     0.000008     0.441955   178.871610
	   27 D(4,1,2,8)      =     59.937789     0.000004     0.509569    60.447358
	   28 D(5,1,2,7)      =    -61.968318     0.000017     0.766580   -61.201738
	   29 D(5,1,2,8)      =    179.539816     0.000012     0.834195   180.374010
	   30 D(6,1,2,7)      =     57.746249     0.000015     0.814557    58.560806
	   31 D(6,1,2,8)      =    -60.745617     0.000011     0.882172   -59.863446
	   32 D(7,2,3,9)      =     61.485900    -0.000027    -1.702082    59.783818
	   33 D(8,2,3,9)      =    176.476045     0.000015    -0.955867   175.520178
	 ---------------------------------------------------------------------------
	Successfully symmetrized geometry.

  ==> Convergence Check <==

  Measures of convergence in internal coordinates in au.
  Criteria marked as inactive (o), active & met (*), and active & unmet ( ).
  ---------------------------------------------------------------------------------------------
   Step     Total Energy     Delta E     MAX Force     RMS Force      MAX Disp      RMS Disp   
  ---------------------------------------------------------------------------------------------
    Convergence Criteria    1.00e-06 *    3.00e-04 *             o    1.20e-03 *             o
  ---------------------------------------------------------------------------------------------
      2    -154.07522863   -2.10e-03      6.28e-03      2.01e-03 o    2.97e-02      1.17e-02 o  ~
  ---------------------------------------------------------------------------------------------

	Writing optimization data to binary file.
	Structure for next step:
	Cartesian Geometry (in Angstrom)
	    C     1.0559395645  -0.2876984665   0.0204610337
	    C     1.9094651705   0.8808166219  -0.4466084072
	    O     1.5294806883   1.3488455250  -1.7168316945
	    H     0.0091693346  -0.0079099934   0.0337615431
	    H     1.1682815431  -1.1442712047  -0.6394242626
	    H     1.3435666006  -0.5998309146   1.0191528987
	    H     2.9618460917   0.6077887635  -0.4414746134
	    H     1.7926180891   1.7222803913   0.2222772096
	    H     1.6769328648   0.6718792647  -2.3607136905
			--------------------------
			 OPTKING Finished Execution 
			--------------------------

    Structure for next step:
    Molecular point group: c1
    Full point group: C1

    Geometry (in Angstrom), charge = 0, multiplicity = 1:

    C            1.055939568612    -0.287698467595     0.020461033764
    C            1.909465178014     0.880816625368    -0.446608408976
    O            1.529480694275     1.348845530336    -1.716831701272
    H            0.009169334627    -0.007909993411     0.033761543252
    H            1.168281547730    -1.144271209152    -0.639424265095
    H            1.343566605926    -0.599830916940     1.019152902719
    H            2.961846103348     0.607788765891    -0.441474615117
    H            1.792618096120     1.722280398116     0.222277210471
    H            1.676932871348     0.671879267386    -2.360713699747

gradient() will perform analytic gradient computation.

*** tstart() called on michael-HP
*** at Thu Aug  1 12:49:19 2019

   => Loading Basis Set <=

    Name: 6-31G*
    Role: ORBITAL
    Keyword: BASIS
    atoms 1-2 entry C          line   111 file /home/michael/anaconda3/envs/RESP2/share/psi4/basis/6-31gs.gbs 
    atoms 3   entry O          line   145 file /home/michael/anaconda3/envs/RESP2/share/psi4/basis/6-31gs.gbs 
    atoms 4-9 entry H          line    44 file /home/michael/anaconda3/envs/RESP2/share/psi4/basis/6-31gs.gbs 


         ---------------------------------------------------------
                                   SCF
               by Justin Turney, Rob Parrish, Andy Simmonett
                          and Daniel G. A. Smith
                              RHF Reference
                        4 Threads,  11444 MiB Core
         ---------------------------------------------------------

  ==> Geometry <==

    Molecular point group: c1
    Full point group: C1

    Geometry (in Angstrom), charge = 0, multiplicity = 1:

       Center              X                  Y                   Z               Mass       
    ------------   -----------------  -----------------  -----------------  -----------------
         C            1.055939568612    -0.287698467595     0.020461033764    12.000000000000
         C            1.909465178014     0.880816625368    -0.446608408976    12.000000000000
         O            1.529480694275     1.348845530336    -1.716831701272    15.994914619570
         H            0.009169334627    -0.007909993411     0.033761543252     1.007825032230
         H            1.168281547730    -1.144271209152    -0.639424265095     1.007825032230
         H            1.343566605926    -0.599830916940     1.019152902719     1.007825032230
         H            2.961846103348     0.607788765891    -0.441474615117     1.007825032230
         H            1.792618096120     1.722280398116     0.222277210471     1.007825032230
         H            1.676932871348     0.671879267386    -2.360713699747     1.007825032230

  Running in c1 symmetry.

  Rotational constants: A =      0.51440  B =      0.08937  C =      0.08126 [cm^-1]
  Rotational constants: A =  15421.24677  B =   2679.15547  C =   2436.12998 [MHz]
  Nuclear repulsion =   82.254820367581331

  Charge       = 0
  Multiplicity = 1
  Electrons    = 26
  Nalpha       = 13
  Nbeta        = 13

  ==> Algorithm <==

  SCF Algorithm Type is DF.
  DIIS enabled.
  MOM disabled.
  Fractional occupation disabled.
  Guess Type is READ.
  Energy threshold   = 1.00e-08
  Density threshold  = 1.00e-08
  Integral threshold = 0.00e+00

  ==> Primary Basis <==

  Basis Set: 6-31G*
    Blend: 6-31G*
    Number of shells: 30
    Number of basis function: 57
    Number of Cartesian functions: 57
    Spherical Harmonics?: false
    Max angular momentum: 2

   => Loading Basis Set <=

    Name: (6-31G* AUX)
    Role: JKFIT
    Keyword: DF_BASIS_SCF
    atoms 1-2 entry C          line   121 file /home/michael/anaconda3/envs/RESP2/share/psi4/basis/cc-pvdz-jkfit.gbs 
    atoms 3   entry O          line   221 file /home/michael/anaconda3/envs/RESP2/share/psi4/basis/cc-pvdz-jkfit.gbs 
    atoms 4-9 entry H          line    51 file /home/michael/anaconda3/envs/RESP2/share/psi4/basis/cc-pvdz-jkfit.gbs 

   => Loading Basis Set <=

    Name: 6-31G*
    Role: ORBITAL
    Keyword: BASIS
    atoms 1-2 entry C          line   111 file /home/michael/anaconda3/envs/RESP2/share/psi4/basis/6-31gs.gbs 
    atoms 3   entry O          line   145 file /home/michael/anaconda3/envs/RESP2/share/psi4/basis/6-31gs.gbs 
    atoms 4-9 entry H          line    44 file /home/michael/anaconda3/envs/RESP2/share/psi4/basis/6-31gs.gbs 

  Reading orbitals from file 180, no projection.

  ==> Pre-Iterations <==

   -------------------------------------------------------
    Irrep   Nso     Nmo     Nalpha   Nbeta   Ndocc  Nsocc
   -------------------------------------------------------
     A         57      57       0       0       0       0
   -------------------------------------------------------
    Total      57      57      13      13      13       0
   -------------------------------------------------------

  ==> Integral Setup <==

  DFHelper Memory: AOs need 0.011 GiB; user supplied 8.382 GiB. Using in-core AOs.

  ==> MemDFJK: Density-Fitted J/K Matrices <==

    J tasked:                   Yes
    K tasked:                   Yes
    wK tasked:                   No
    OpenMP threads:               4
    Memory [MiB]:              8583
    Algorithm:                 Core
    Schwarz Cutoff:           1E-12
    Mask sparsity (%):       0.0616
    Fitting Condition:        1E-10

   => Auxiliary Basis Set <=

  Basis Set: (6-31G* AUX)
    Blend: CC-PVDZ-JKFIT
    Number of shells: 126
    Number of basis function: 393
    Number of Cartesian functions: 393
    Spherical Harmonics?: false
    Max angular momentum: 3

  Minimum eigenvalue in the overlap matrix is 5.9322980097E-03.
  Using Symmetric Orthogonalization.

  SCF Guess: Orbitals guess was supplied from a previous computation.

  ==> Iterations <==

                           Total Energy        Delta E     RMS |[F,P]|

   @DF-RHF iter   0:  -154.08322646227361   -1.54083e+02   5.00424e-04 
   @DF-RHF iter   1:  -154.07547304875405    7.75341e-03   7.39462e-05 DIIS
   @DF-RHF iter   2:  -154.07548731795137   -1.42692e-05   2.53738e-05 DIIS
   @DF-RHF iter   3:  -154.07548939004226   -2.07209e-06   1.03338e-05 DIIS
   @DF-RHF iter   4:  -154.07548972346058   -3.33418e-07   1.98039e-06 DIIS
   @DF-RHF iter   5:  -154.07548974087712   -1.74165e-08   6.34005e-07 DIIS
   @DF-RHF iter   6:  -154.07548974232108   -1.44396e-09   2.32815e-07 DIIS
   @DF-RHF iter   7:  -154.07548974245645   -1.35373e-10   5.91425e-08 DIIS
   @DF-RHF iter   8:  -154.07548974247101   -1.45519e-11   1.16479e-08 DIIS
   @DF-RHF iter   9:  -154.07548974247169   -6.82121e-13   3.67872e-09 DIIS
  Energy and wave function converged.


  ==> Post-Iterations <==

    Orbital Energies [Eh]
    ---------------------

    Doubly Occupied:                                                      

       1A    -20.552815     2A    -11.270513     3A    -11.214780  
       4A     -1.359638     5A     -1.012595     6A     -0.850984  
       7A     -0.689692     8A     -0.624573     9A     -0.604906  
      10A     -0.544429    11A     -0.526568    12A     -0.477694  
      13A     -0.436416  

    Virtual:                                                              

      14A      0.223581    15A      0.272907    16A      0.297612  
      17A      0.312051    18A      0.320007    19A      0.343304  
      20A      0.406975    21A      0.424877    22A      0.728597  
      23A      0.748420    24A      0.790190    25A      0.817913  
      26A      0.897690    27A      0.917876    28A      1.079370  
      29A      1.141239    30A      1.164205    31A      1.185264  
      32A      1.187460    33A      1.207390    34A      1.239711  
      35A      1.287433    36A      1.303452    37A      1.428466  
      38A      1.614724    39A      1.723196    40A      1.792367  
      41A      1.845389    42A      2.039562    43A      2.108561  
      44A      2.219266    45A      2.279428    46A      2.446942  
      47A      2.469370    48A      2.563265    49A      2.640855  
      50A      2.714352    51A      2.768154    52A      2.890914  
      53A      3.001335    54A      3.196851    55A      4.162668  
      56A      4.602138    57A      4.823039  

    Final Occupation by Irrep:
              A 
    DOCC [    13 ]

  @DF-RHF Final Energy:  -154.07548974247169

   => Energetics <=

    Nuclear Repulsion Energy =             82.2548203675813312
    One-Electron Energy =                -372.3294142268144356
    Two-Electron Energy =                 135.9991041167614299
    Total Energy =                       -154.0754897424716887

Computation Completed


Properties will be evaluated at   0.000000,   0.000000,   0.000000 [a0]

Properties computed using the SCF density matrix

  Nuclear Dipole Moment: [e a0]
     X:    73.6628      Y:    29.4786      Z:   -34.8805

  Electronic Dipole Moment: [e a0]
     X:   -73.4231      Y:   -30.1390      Z:    35.0315

  Dipole Moment: [e a0]
     X:     0.2397      Y:    -0.6604      Z:     0.1510     Total:     0.7186

  Dipole Moment: [D]
     X:     0.6093      Y:    -1.6786      Z:     0.3837     Total:     1.8265


*** tstop() called on michael-HP at Thu Aug  1 12:49:20 2019
Module time:
	user time   =       1.95 seconds =       0.03 minutes
	system time =       0.02 seconds =       0.00 minutes
	total time  =          1 seconds =       0.02 minutes
Total time:
	user time   =      11.31 seconds =       0.19 minutes
	system time =       0.22 seconds =       0.00 minutes
	total time  =          3 seconds =       0.05 minutes

*** tstart() called on michael-HP
*** at Thu Aug  1 12:49:20 2019


         ------------------------------------------------------------
                                   SCF GRAD                          
                          Rob Parrish, Justin Turney,                
                       Andy Simmonett, and Alex Sokolov              
         ------------------------------------------------------------

  ==> Geometry <==

    Molecular point group: c1
    Full point group: C1

    Geometry (in Angstrom), charge = 0, multiplicity = 1:

       Center              X                  Y                   Z               Mass       
    ------------   -----------------  -----------------  -----------------  -----------------
         C            1.055939568612    -0.287698467595     0.020461033764    12.000000000000
         C            1.909465178014     0.880816625368    -0.446608408976    12.000000000000
         O            1.529480694275     1.348845530336    -1.716831701272    15.994914619570
         H            0.009169334627    -0.007909993411     0.033761543252     1.007825032230
         H            1.168281547730    -1.144271209152    -0.639424265095     1.007825032230
         H            1.343566605926    -0.599830916940     1.019152902719     1.007825032230
         H            2.961846103348     0.607788765891    -0.441474615117     1.007825032230
         H            1.792618096120     1.722280398116     0.222277210471     1.007825032230
         H            1.676932871348     0.671879267386    -2.360713699747     1.007825032230

  Nuclear repulsion =   82.254820367581331

  ==> Basis Set <==

  Basis Set: 6-31G*
    Blend: 6-31G*
    Number of shells: 30
    Number of basis function: 57
    Number of Cartesian functions: 57
    Spherical Harmonics?: false
    Max angular momentum: 2

  ==> DFJKGrad: Density-Fitted SCF Gradients <==

    Gradient:                    1
    J tasked:                  Yes
    K tasked:                  Yes
    wK tasked:                  No
    OpenMP threads:              4
    Integrals threads:           4
    Memory [MiB]:             8583
    Schwarz Cutoff:          0E+00
    Fitting Condition:       1E-10

   => Auxiliary Basis Set <=

  Basis Set: (6-31G* AUX)
    Blend: CC-PVDZ-JKFIT
    Number of shells: 126
    Number of basis function: 393
    Number of Cartesian functions: 393
    Spherical Harmonics?: false
    Max angular momentum: 3


  -Total Gradient:
     Atom            X                  Y                   Z
    ------   -----------------  -----------------  -----------------
       1       -0.000136288075    -0.000044724209    -0.000059583321
       2        0.000533357290    -0.000326063480     0.002543009919
       3        0.000176726118    -0.001114093186    -0.002154848357
       4        0.000573314983    -0.000085659820     0.000009473378
       5       -0.000140062011    -0.000005379554     0.000217773967
       6       -0.000112834520     0.000245418467    -0.000598714583
       7       -0.000728901717     0.000377397906    -0.000225561427
       8        0.000200877377    -0.000321798004    -0.000422106005
       9       -0.000366189449     0.001274901880     0.000690556429


*** tstop() called on michael-HP at Thu Aug  1 12:49:21 2019
Module time:
	user time   =       1.93 seconds =       0.03 minutes
	system time =       0.05 seconds =       0.00 minutes
	total time  =          1 seconds =       0.02 minutes
Total time:
	user time   =      13.24 seconds =       0.22 minutes
	system time =       0.27 seconds =       0.00 minutes
	total time  =          4 seconds =       0.07 minutes

			-----------------------------------------
			 OPTKING 2.0: for geometry optimizations 
			  - R.A. King,  Bethel University        
			-----------------------------------------

	Previous internal coordinate definitions found.
	---Fragment 1 Geometry and Gradient---
	 C           1.9954365897       -0.5436713105        0.0386657501
	 C           3.6083662325        1.6645021887       -0.8439675783
	 O           2.8902996264        2.5489486379       -3.2443417189
	 H           0.0173275312       -0.0149477212        0.0638000703
	 H           2.2077321626       -2.1623591985       -1.2083367390
	 H           2.5389729165       -1.1335161546        1.9259198661
	 H           5.5970779611        1.1485543097       -0.8342661139
	 H           3.3875572492        3.2546382637        0.4200430517
	 H           3.1689438576        1.2696678047       -4.4611023531
	            -0.0001362881       -0.0000447242       -0.0000595833
	             0.0005333573       -0.0003260635        0.0025430099
	             0.0001767261       -0.0011140932       -0.0021548484
	             0.0005733150       -0.0000856598        0.0000094734
	            -0.0001400620       -0.0000053796        0.0002177740
	            -0.0001128345        0.0002454185       -0.0005987146
	            -0.0007289017        0.0003773979       -0.0002255614
	             0.0002008774       -0.0003217980       -0.0004221060
	            -0.0003661894        0.0012749019        0.0006905564

	---Fragment 1 Intrafragment Coordinates---
	 - Coordinate -           - BOHR/RAD -       - ANG/DEG -
	 R(1,2)           =         2.873432	       1.520555
	 R(1,4)           =         2.047705	       1.083599
	 R(1,5)           =         2.054321	       1.087100
	 R(1,6)           =         2.050628	       1.085146
	 R(2,3)           =         2.657002	       1.406025
	 R(2,7)           =         2.054573	       1.087233
	 R(2,8)           =         2.043285	       1.081260
	 R(3,9)           =         1.787375	       0.945838
	 B(1,2,3)         =         1.962332	     112.433335
	 B(1,2,7)         =         1.927192	     110.419986
	 B(1,2,8)         =         1.925561	     110.326498
	 B(2,1,4)         =         1.925800	     110.340211
	 B(2,1,5)         =         1.940193	     111.164890
	 B(2,1,6)         =         1.933668	     110.791009
	 B(2,3,9)         =         1.912001	     109.549563
	 B(3,2,7)         =         1.927779	     110.453605
	 B(3,2,8)         =         1.844824	     105.700653
	 B(4,1,5)         =         1.886756	     108.103150
	 B(4,1,6)         =         1.895495	     108.603856
	 B(5,1,6)         =         1.880333	     107.735137
	 B(7,2,8)         =         1.872461	     107.284093
	 D(1,2,3,9)       =        -1.117948	     -64.053717
	 D(3,2,1,4)       =        -0.999588	     -57.272175
	 D(3,2,1,5)       =         1.093527	      62.654477
	 D(3,2,1,6)       =        -3.099408	    -177.582979
	 D(4,1,2,7)       =         3.121899	     178.871610
	 D(4,1,2,8)       =         1.055005	      60.447358
	 D(5,1,2,7)       =        -1.068172	     -61.201738
	 D(5,1,2,8)       =        -3.135065	    -179.625990
	 D(6,1,2,7)       =         1.022079	      58.560806
	 D(6,1,2,8)       =        -1.044814	     -59.863446
	 D(7,2,3,9)       =         1.043424	      59.783818
	 D(8,2,3,9)       =         3.063405	     175.520178

	Current energy   :      -154.0754897425

	Energy change for the previous step:
		Projected    :        -0.0009144814
		Actual       :        -0.0002611162

	Performing BFGS update.
	Previous computed or guess Hessian on step 1.
	Steps to be used in Hessian update: 2 1
	Taking RFO optimization step.
	Going to follow RFO solution 1.
	Using RFO vector 1.
	Norm of target step-size    0.01146
	Projected energy change by RFO approximation:        -0.0000155013

	Back-transformation to cartesian coordinates...
	Successfully converged to displaced geometry.

	--- Internal Coordinate Step in ANG or DEG, aJ/ANG or AJ/DEG ---
	 ---------------------------------------------------------------------------
	   Coordinate                Previous        Force       Change         New 
	   ----------                --------       ------       ------       ------
	    1 R(1,2)          =      1.520555     0.002637     0.000415     1.520970
	    2 R(1,4)          =      1.083599     0.004744     0.000828     1.084427
	    3 R(1,5)          =      1.087100     0.001173     0.000175     1.087275
	    4 R(1,6)          =      1.085146     0.005368     0.000858     1.086004
	    5 R(2,3)          =      1.406025    -0.011762    -0.001885     1.404141
	    6 R(2,7)          =      1.087233     0.006602     0.001118     1.088352
	    7 R(2,8)          =      1.081260     0.004393     0.000769     1.082029
	    8 R(3,9)          =      0.945838     0.011861     0.001164     0.947002
	    9 B(1,2,3)        =    112.433335     0.000008     0.015018   112.448353
	   10 B(1,2,7)        =    110.419986    -0.000018    -0.092017   110.327969
	   11 B(1,2,8)        =    110.326498    -0.000015    -0.121643   110.204856
	   12 B(2,1,4)        =    110.340211     0.000009     0.047526   110.387737
	   13 B(2,1,5)        =    111.164890    -0.000028    -0.135039   111.029851
	   14 B(2,1,6)        =    110.791009     0.000013     0.051127   110.842136
	   15 B(2,3,9)        =    109.549563    -0.000055    -0.218580   109.330982
	   16 B(3,2,7)        =    110.453605     0.000016     0.149043   110.602648
	   17 B(3,2,8)        =    105.700653     0.000002     0.032576   105.733230
	   18 B(4,1,5)        =    108.103150     0.000005    -0.007935   108.095215
	   19 B(4,1,6)        =    108.603856    -0.000005     0.019287   108.623144
	   20 B(5,1,6)        =    107.735137     0.000006     0.025984   107.761121
	   21 B(7,2,8)        =    107.284093     0.000009     0.021377   107.305470
	   22 D(1,2,3,9)      =    -64.053717    -0.000001    -0.184112   -64.237829
	   23 D(3,2,1,4)      =    -57.272175     0.000002     0.212068   -57.060108
	   24 D(3,2,1,5)      =     62.654477     0.000001     0.145646    62.800123
	   25 D(3,2,1,6)      =   -177.582979     0.000001     0.123248  -177.459731
	   26 D(4,1,2,7)      =    178.871610    -0.000001     0.075819   178.947429
	   27 D(4,1,2,8)      =     60.447358     0.000002     0.182108    60.629465
	   28 D(5,1,2,7)      =    -61.201738    -0.000002     0.009397   -61.192340
	   29 D(5,1,2,8)      =   -179.625990     0.000000     0.115686  -179.510303
	   30 D(6,1,2,7)      =     58.560806    -0.000002    -0.013001    58.547805
	   31 D(6,1,2,8)      =    -59.863446    -0.000000     0.093288   -59.770158
	   32 D(7,2,3,9)      =     59.783818    -0.000002    -0.181640    59.602179
	   33 D(8,2,3,9)      =    175.520178     0.000002    -0.064958   175.455219
	 ---------------------------------------------------------------------------
	Successfully symmetrized geometry.

  ==> Convergence Check <==

  Measures of convergence in internal coordinates in au.
  Criteria marked as inactive (o), active & met (*), and active & unmet ( ).
  ---------------------------------------------------------------------------------------------
   Step     Total Energy     Delta E     MAX Force     RMS Force      MAX Disp      RMS Disp   
  ---------------------------------------------------------------------------------------------
    Convergence Criteria    1.00e-06 *    3.00e-04 *             o    1.20e-03 *             o
  ---------------------------------------------------------------------------------------------
      3    -154.07548974   -2.61e-04      1.44e-03      4.57e-04 o    3.81e-03      1.99e-03 o  ~
  ---------------------------------------------------------------------------------------------

	Writing optimization data to binary file.
	Structure for next step:
	Cartesian Geometry (in Angstrom)
	    C     1.0557453781  -0.2878753747   0.0193989498
	    C     1.9098316656   0.8808922345  -0.4473657908
	    O     1.5278008464   1.3520714256  -1.7137200851
	    H     0.0080238552  -0.0084532578   0.0329647506
	    H     1.1687277534  -1.1426991446  -0.6429293719
	    H     1.3437764584  -0.6023081991   1.0181854572
	    H     2.9627046104   0.6053056153  -0.4428887809
	    H     1.7940188523   1.7204818704   0.2252882400
	    H     1.6766705273   0.6744848179  -2.3583333519
			--------------------------
			 OPTKING Finished Execution 
			--------------------------

    Structure for next step:
    Molecular point group: c1
    Full point group: C1

    Geometry (in Angstrom), charge = 0, multiplicity = 1:

    C            1.055745382295    -0.287875375822     0.019398949841
    C            1.909831673069     0.880892237997    -0.447365792581
    O            1.527800852411     1.352071430940    -1.713720091864
    H            0.008023855218    -0.008453257853     0.032964750765
    H            1.168727757973    -1.142699149112    -0.642929374409
    H            1.343776463680    -0.602308201464     1.018185461195
    H            2.962704622070     0.605305617632    -0.442888782682
    H            1.794018859361     1.720481877152     0.225288240894
    H            1.676670533922     0.674484820529    -2.358333361160

gradient() will perform analytic gradient computation.

*** tstart() called on michael-HP
*** at Thu Aug  1 12:49:21 2019

   => Loading Basis Set <=

    Name: 6-31G*
    Role: ORBITAL
    Keyword: BASIS
    atoms 1-2 entry C          line   111 file /home/michael/anaconda3/envs/RESP2/share/psi4/basis/6-31gs.gbs 
    atoms 3   entry O          line   145 file /home/michael/anaconda3/envs/RESP2/share/psi4/basis/6-31gs.gbs 
    atoms 4-9 entry H          line    44 file /home/michael/anaconda3/envs/RESP2/share/psi4/basis/6-31gs.gbs 


         ---------------------------------------------------------
                                   SCF
               by Justin Turney, Rob Parrish, Andy Simmonett
                          and Daniel G. A. Smith
                              RHF Reference
                        4 Threads,  11444 MiB Core
         ---------------------------------------------------------

  ==> Geometry <==

    Molecular point group: c1
    Full point group: C1

    Geometry (in Angstrom), charge = 0, multiplicity = 1:

       Center              X                  Y                   Z               Mass       
    ------------   -----------------  -----------------  -----------------  -----------------
         C            1.055745382295    -0.287875375822     0.019398949841    12.000000000000
         C            1.909831673069     0.880892237997    -0.447365792581    12.000000000000
         O            1.527800852411     1.352071430940    -1.713720091864    15.994914619570
         H            0.008023855218    -0.008453257853     0.032964750765     1.007825032230
         H            1.168727757973    -1.142699149112    -0.642929374409     1.007825032230
         H            1.343776463680    -0.602308201464     1.018185461195     1.007825032230
         H            2.962704622070     0.605305617632    -0.442888782682     1.007825032230
         H            1.794018859361     1.720481877152     0.225288240894     1.007825032230
         H            1.676670533922     0.674484820529    -2.358333361160     1.007825032230

  Running in c1 symmetry.

  Rotational constants: A =      0.51469  B =      0.08941  C =      0.08129 [cm^-1]
  Rotational constants: A =  15429.96701  B =   2680.37940  C =   2437.08259 [MHz]
  Nuclear repulsion =   82.267777512947333

  Charge       = 0
  Multiplicity = 1
  Electrons    = 26
  Nalpha       = 13
  Nbeta        = 13

  ==> Algorithm <==

  SCF Algorithm Type is DF.
  DIIS enabled.
  MOM disabled.
  Fractional occupation disabled.
  Guess Type is READ.
  Energy threshold   = 1.00e-08
  Density threshold  = 1.00e-08
  Integral threshold = 0.00e+00

  ==> Primary Basis <==

  Basis Set: 6-31G*
    Blend: 6-31G*
    Number of shells: 30
    Number of basis function: 57
    Number of Cartesian functions: 57
    Spherical Harmonics?: false
    Max angular momentum: 2

   => Loading Basis Set <=

    Name: (6-31G* AUX)
    Role: JKFIT
    Keyword: DF_BASIS_SCF
    atoms 1-2 entry C          line   121 file /home/michael/anaconda3/envs/RESP2/share/psi4/basis/cc-pvdz-jkfit.gbs 
    atoms 3   entry O          line   221 file /home/michael/anaconda3/envs/RESP2/share/psi4/basis/cc-pvdz-jkfit.gbs 
    atoms 4-9 entry H          line    51 file /home/michael/anaconda3/envs/RESP2/share/psi4/basis/cc-pvdz-jkfit.gbs 

   => Loading Basis Set <=

    Name: 6-31G*
    Role: ORBITAL
    Keyword: BASIS
    atoms 1-2 entry C          line   111 file /home/michael/anaconda3/envs/RESP2/share/psi4/basis/6-31gs.gbs 
    atoms 3   entry O          line   145 file /home/michael/anaconda3/envs/RESP2/share/psi4/basis/6-31gs.gbs 
    atoms 4-9 entry H          line    44 file /home/michael/anaconda3/envs/RESP2/share/psi4/basis/6-31gs.gbs 

  Reading orbitals from file 180, no projection.

  ==> Pre-Iterations <==

   -------------------------------------------------------
    Irrep   Nso     Nmo     Nalpha   Nbeta   Ndocc  Nsocc
   -------------------------------------------------------
     A         57      57       0       0       0       0
   -------------------------------------------------------
    Total      57      57      13      13      13       0
   -------------------------------------------------------

  ==> Integral Setup <==

  DFHelper Memory: AOs need 0.011 GiB; user supplied 8.382 GiB. Using in-core AOs.

  ==> MemDFJK: Density-Fitted J/K Matrices <==

    J tasked:                   Yes
    K tasked:                   Yes
    wK tasked:                   No
    OpenMP threads:               4
    Memory [MiB]:              8583
    Algorithm:                 Core
    Schwarz Cutoff:           1E-12
    Mask sparsity (%):       0.0616
    Fitting Condition:        1E-10

   => Auxiliary Basis Set <=

  Basis Set: (6-31G* AUX)
    Blend: CC-PVDZ-JKFIT
    Number of shells: 126
    Number of basis function: 393
    Number of Cartesian functions: 393
    Spherical Harmonics?: false
    Max angular momentum: 3

  Minimum eigenvalue in the overlap matrix is 5.9283414829E-03.
  Using Symmetric Orthogonalization.

  SCF Guess: Orbitals guess was supplied from a previous computation.

  ==> Iterations <==

                           Total Energy        Delta E     RMS |[F,P]|

   @DF-RHF iter   0:  -154.07423546037094   -1.54074e+02   1.39003e-04 
   @DF-RHF iter   1:  -154.07549838281585   -1.26292e-03   2.26143e-05 DIIS
   @DF-RHF iter   2:  -154.07549941776739   -1.03495e-06   1.00697e-05 DIIS
   @DF-RHF iter   3:  -154.07549957683358   -1.59066e-07   3.56187e-06 DIIS
   @DF-RHF iter   4:  -154.07549960860626   -3.17727e-08   5.95111e-07 DIIS
   @DF-RHF iter   5:  -154.07549960977022   -1.16395e-09   1.67640e-07 DIIS
   @DF-RHF iter   6:  -154.07549960987802   -1.07804e-10   5.89593e-08 DIIS
   @DF-RHF iter   7:  -154.07549960989238   -1.43530e-11   1.44525e-08 DIIS
   @DF-RHF iter   8:  -154.07549960989331   -9.37916e-13   3.18038e-09 DIIS
  Energy and wave function converged.


  ==> Post-Iterations <==

    Orbital Energies [Eh]
    ---------------------

    Doubly Occupied:                                                      

       1A    -20.553316     2A    -11.270611     3A    -11.214912  
       4A     -1.360417     5A     -1.012224     6A     -0.850597  
       7A     -0.690003     8A     -0.624699     9A     -0.604857  
      10A     -0.544482    11A     -0.526617    12A     -0.477507  
      13A     -0.436320  

    Virtual:                                                              

      14A      0.223236    15A      0.272850    16A      0.297699  
      17A      0.311887    18A      0.319910    19A      0.343089  
      20A      0.407359    21A      0.424892    22A      0.728771  
      23A      0.748840    24A      0.790530    25A      0.818376  
      26A      0.897750    27A      0.917561    28A      1.078314  
      29A      1.140866    30A      1.163427    31A      1.185022  
      32A      1.186649    33A      1.206643    34A      1.239036  
      35A      1.286774    36A      1.303499    37A      1.427969  
      38A      1.615211    39A      1.723378    40A      1.792132  
      41A      1.844886    42A      2.039202    43A      2.108410  
      44A      2.220002    45A      2.279324    46A      2.447763  
      47A      2.470452    48A      2.563206    49A      2.639281  
      50A      2.714993    51A      2.768063    52A      2.889096  
      53A      3.002410    54A      3.197379    55A      4.162864  
      56A      4.601523    57A      4.822735  

    Final Occupation by Irrep:
              A 
    DOCC [    13 ]

  @DF-RHF Final Energy:  -154.07549960989331

   => Energetics <=

    Nuclear Repulsion Energy =             82.2677775129473332
    One-Electron Energy =                -372.3534301619777693
    Two-Electron Energy =                 136.0101530391370943
    Total Energy =                       -154.0754996098933134

Computation Completed


Properties will be evaluated at   0.000000,   0.000000,   0.000000 [a0]

Properties computed using the SCF density matrix

  Nuclear Dipole Moment: [e a0]
     X:    73.6422      Y:    29.5203      Z:   -34.8565

  Electronic Dipole Moment: [e a0]
     X:   -73.4016      Y:   -30.1804      Z:    35.0028

  Dipole Moment: [e a0]
     X:     0.2406      Y:    -0.6601      Z:     0.1463     Total:     0.7177

  Dipole Moment: [D]
     X:     0.6117      Y:    -1.6778      Z:     0.3717     Total:     1.8241


*** tstop() called on michael-HP at Thu Aug  1 12:49:21 2019
Module time:
	user time   =       1.89 seconds =       0.03 minutes
	system time =       0.06 seconds =       0.00 minutes
	total time  =          0 seconds =       0.00 minutes
Total time:
	user time   =      15.20 seconds =       0.25 minutes
	system time =       0.33 seconds =       0.01 minutes
	total time  =          4 seconds =       0.07 minutes

*** tstart() called on michael-HP
*** at Thu Aug  1 12:49:21 2019


         ------------------------------------------------------------
                                   SCF GRAD                          
                          Rob Parrish, Justin Turney,                
                       Andy Simmonett, and Alex Sokolov              
         ------------------------------------------------------------

  ==> Geometry <==

    Molecular point group: c1
    Full point group: C1

    Geometry (in Angstrom), charge = 0, multiplicity = 1:

       Center              X                  Y                   Z               Mass       
    ------------   -----------------  -----------------  -----------------  -----------------
         C            1.055745382295    -0.287875375822     0.019398949841    12.000000000000
         C            1.909831673069     0.880892237997    -0.447365792581    12.000000000000
         O            1.527800852411     1.352071430940    -1.713720091864    15.994914619570
         H            0.008023855218    -0.008453257853     0.032964750765     1.007825032230
         H            1.168727757973    -1.142699149112    -0.642929374409     1.007825032230
         H            1.343776463680    -0.602308201464     1.018185461195     1.007825032230
         H            2.962704622070     0.605305617632    -0.442888782682     1.007825032230
         H            1.794018859361     1.720481877152     0.225288240894     1.007825032230
         H            1.676670533922     0.674484820529    -2.358333361160     1.007825032230

  Nuclear repulsion =   82.267777512947333

  ==> Basis Set <==

  Basis Set: 6-31G*
    Blend: 6-31G*
    Number of shells: 30
    Number of basis function: 57
    Number of Cartesian functions: 57
    Spherical Harmonics?: false
    Max angular momentum: 2

  ==> DFJKGrad: Density-Fitted SCF Gradients <==

    Gradient:                    1
    J tasked:                  Yes
    K tasked:                  Yes
    wK tasked:                  No
    OpenMP threads:              4
    Integrals threads:           4
    Memory [MiB]:             8583
    Schwarz Cutoff:          0E+00
    Fitting Condition:       1E-10

   => Auxiliary Basis Set <=

  Basis Set: (6-31G* AUX)
    Blend: CC-PVDZ-JKFIT
    Number of shells: 126
    Number of basis function: 393
    Number of Cartesian functions: 393
    Spherical Harmonics?: false
    Max angular momentum: 3


  -Total Gradient:
     Atom            X                  Y                   Z
    ------   -----------------  -----------------  -----------------
       1        0.000040585161     0.000136643119    -0.000124935573
       2        0.000216037645    -0.000377029175     0.000264064492
       3       -0.000142404508     0.000051233582    -0.000216669711
       4       -0.000034882186    -0.000008106633    -0.000010035658
       5        0.000010792143     0.000075989221     0.000023001480
       6        0.000020013568     0.000037570497     0.000005603918
       7       -0.000059425214     0.000023126368    -0.000045174204
       8       -0.000077531505    -0.000009052589    -0.000088695310
       9        0.000026814892     0.000069625612     0.000192840566


*** tstop() called on michael-HP at Thu Aug  1 12:49:22 2019
Module time:
	user time   =       1.94 seconds =       0.03 minutes
	system time =       0.05 seconds =       0.00 minutes
	total time  =          1 seconds =       0.02 minutes
Total time:
	user time   =      17.15 seconds =       0.29 minutes
	system time =       0.38 seconds =       0.01 minutes
	total time  =          5 seconds =       0.08 minutes

			-----------------------------------------
			 OPTKING 2.0: for geometry optimizations 
			  - R.A. King,  Bethel University        
			-----------------------------------------

[...]
   => Auxiliary Basis Set <=

  Basis Set: (CC-PV(D+D)Z AUX)
    Blend: CC-PVDZ-JKFIT
    Number of shells: 126
    Number of basis function: 348
    Number of Cartesian functions: 393
    Spherical Harmonics?: true
    Max angular momentum: 3

  Cached 100.0% of DFT collocation blocks in 0.952 [GiB].

  Minimum eigenvalue in the overlap matrix is 6.3263267743E-03.
  Using Symmetric Orthogonalization.

  SCF Guess: Orbitals guess was supplied from a previous computation.

  ==> Iterations <==

                           Total Energy        Delta E     RMS |[F,P]|

   @DF-RKS iter   0:  -155.22229143640541   -1.55222e+02   1.53278e-05 
   @DF-RKS iter   1:  -155.22228561311866    5.82329e-06   2.30201e-06 DIIS
   @DF-RKS iter   2:  -155.22228561634194   -3.22328e-09   2.39090e-06 DIIS
   @DF-RKS iter   3:  -155.22228562787186   -1.15299e-08   4.71829e-07 DIIS
   @DF-RKS iter   4:  -155.22228562829142   -4.19561e-10   1.06233e-07 DIIS
   @DF-RKS iter   5:  -155.22228562831319   -2.17710e-11   4.65557e-08 DIIS
   @DF-RKS iter   6:  -155.22228562831873   -5.54223e-12   2.78810e-09 DIIS
  Energy and wave function converged.


  ==> Post-Iterations <==

    Orbital Energies [Eh]
    ---------------------

    Doubly Occupied:                                                      

       1A    -19.295433     2A    -10.346696     3A    -10.298750  
       4A     -1.045091     5A     -0.767344     6A     -0.639509  
       7A     -0.514961     8A     -0.464390     9A     -0.445669  
      10A     -0.392538    11A     -0.381094    12A     -0.334629  
      13A     -0.281253  

    Virtual:                                                              

      14A      0.066001    15A      0.104278    16A      0.122195  
      17A      0.133358    18A      0.147857    19A      0.170210  
      20A      0.226024    21A      0.253081    22A      0.428055  
      23A      0.454914    24A      0.481618    25A      0.519084  
      26A      0.556612    27A      0.591131    28A      0.630744  
      29A      0.663957    30A      0.666938    31A      0.675194  
      32A      0.680859    33A      0.707758    34A      0.890592  
      35A      0.913036    36A      0.965498    37A      1.032607  
      38A      1.082107    39A      1.141339    40A      1.227143  
      41A      1.260906    42A      1.333649    43A      1.408112  
      44A      1.435907    45A      1.503384    46A      1.590280  
      47A      1.605179    48A      1.625641    49A      1.658866  
      50A      1.668514    51A      1.680691    52A      1.711766  
      53A      1.775113    54A      1.805531    55A      1.876028  
      56A      1.968431    57A      2.004010    58A      2.056555  
      59A      2.123612    60A      2.200387    61A      2.215926  
      62A      2.240793    63A      2.416281    64A      2.434612  
      65A      2.495040    66A      2.526525    67A      2.571133  
      68A      2.962332    69A      3.042232    70A      3.088986  
      71A      3.255202    72A      3.700176  

    Final Occupation by Irrep:
              A 
    DOCC [    13 ]

  @DF-RKS Final Energy:  -155.22228562831873

   => Energetics <=

    Nuclear Repulsion Energy =             81.8938330146706903
    One-Electron Energy =                -372.0787398743428298
    Two-Electron Energy =                 151.0594186704750541
    DFT Exchange-Correlation Energy =     -16.0967974391216551
    Empirical Dispersion Energy =           0.0000000000000000
    VV10 Nonlocal Energy =                  0.0000000000000000
    Total Energy =                       -155.2222856283187298

Computation Completed


Properties will be evaluated at   0.000000,   0.000000,   0.000000 [a0]

Properties computed using the SCF density matrix

  Nuclear Dipole Moment: [e a0]
     X:    73.8533      Y:    29.8779      Z:   -34.9308

  Electronic Dipole Moment: [e a0]
     X:   -73.6950      Y:   -30.4516      Z:    35.0203

  Dipole Moment: [e a0]
     X:     0.1584      Y:    -0.5736      Z:     0.0896     Total:     0.6018

  Dipole Moment: [D]
     X:     0.4025      Y:    -1.4581      Z:     0.2277     Total:     1.5296


*** tstop() called on michael-HP at Thu Aug  1 12:50:03 2019
Module time:
	user time   =      16.69 seconds =       0.28 minutes
	system time =       0.18 seconds =       0.00 minutes
	total time  =          5 seconds =       0.08 minutes
Total time:
	user time   =     168.64 seconds =       2.81 minutes
	system time =       2.54 seconds =       0.04 minutes
	total time  =         46 seconds =       0.77 minutes

*** tstart() called on michael-HP
*** at Thu Aug  1 12:50:03 2019


         ------------------------------------------------------------
                                   SCF GRAD                          
                          Rob Parrish, Justin Turney,                
                       Andy Simmonett, and Alex Sokolov              
         ------------------------------------------------------------

  ==> Geometry <==

    Molecular point group: c1
    Full point group: C1

    Geometry (in Angstrom), charge = 0, multiplicity = 1:

       Center              X                  Y                   Z               Mass       
    ------------   -----------------  -----------------  -----------------  -----------------
         C            1.059455171960    -0.283606255795     0.007742395409    12.000000000000
         C            1.914573064712     0.881465481675    -0.445616675463    12.000000000000
         O            1.537722850608     1.375647299363    -1.712256476331    15.994914619570
         H           -0.001111518847    -0.005293618981     0.003056126236     1.007825032230
         H            1.185828918174    -1.147481496643    -0.660452935516     1.007825032230
         H            1.332393932448    -0.607150314528     1.020292078781     1.007825032230
         H            2.982065676177     0.598065113335    -0.424756895980     1.007825032230
         H            1.798987881914     1.726158664746     0.245077282565     1.007825032230
         H            1.637384022852     0.654095126827    -2.342484899700     1.007825032230

  Nuclear repulsion =   81.893833014670690

  ==> Basis Set <==

  Basis Set: CC-PV(D+D)Z
    Blend: CC-PV(D+D)Z
    Number of shells: 36
    Number of basis function: 72
    Number of Cartesian functions: 75
    Spherical Harmonics?: true
    Max angular momentum: 2

  ==> DFJKGrad: Density-Fitted SCF Gradients <==

    Gradient:                    1
    J tasked:                  Yes
    K tasked:                  Yes
    wK tasked:                  No
    OpenMP threads:              4
    Integrals threads:           4
    Memory [MiB]:             8583
    Schwarz Cutoff:          0E+00
    Fitting Condition:       1E-10

   => Auxiliary Basis Set <=

  Basis Set: (CC-PV(D+D)Z AUX)
    Blend: CC-PVDZ-JKFIT
    Number of shells: 126
    Number of basis function: 348
    Number of Cartesian functions: 393
    Spherical Harmonics?: true
    Max angular momentum: 3

  ==> DFT Potential <==

   => Composite Functional: PW6B95 <= 

    PW6B95 Hybrid Meta-GGA XC Functional

    Y. Zhao and D. Truhlar, J. Phys. Chem. A., 109,5656-5667, 2005


    Deriv               =              1
    GGA                 =           TRUE
    Meta                =           TRUE

    Exchange Hybrid     =           TRUE
    MP2 Hybrid          =          FALSE

   => Exchange Functionals <=

    0.7200    XC_GGA_X_PW91

   => Exact (HF) Exchange <=

    0.2800               HF 

   => Correlation Functionals <=

    1.0000   XC_MGGA_C_BC95

   => Molecular Quadrature <=

    Radial Scheme          =       TREUTLER
    Pruning Scheme         =           FLAT
    Nuclear Scheme         =       TREUTLER

    BS radius alpha        =              1
    Pruning alpha          =              1
    Radial Points          =             75
    Spherical Points       =            302
    Total Points           =         200469
    Total Blocks           =           1561
    Max Points             =            256
    Max Functions          =             72


  -Total Gradient:
     Atom            X                  Y                   Z
    ------   -----------------  -----------------  -----------------
       1        0.000016110286    -0.000002062624     0.000016473551
       2       -0.000026437277    -0.000002023880    -0.000018461175
       3        0.000012382684    -0.000007604585    -0.000012271756
       4        0.000010494453     0.000007660319     0.000000733221
       5       -0.000003234179     0.000002426868     0.000001438678
       6        0.000000725722    -0.000001299461    -0.000001950853
       7        0.000003283740    -0.000005357822     0.000012492499
       8        0.000008032410    -0.000011060713     0.000004355389
       9       -0.000005804256     0.000001815918    -0.000002838472


*** tstop() called on michael-HP at Thu Aug  1 12:50:04 2019
Module time:
	user time   =       6.72 seconds =       0.11 minutes
	system time =       0.04 seconds =       0.00 minutes
	total time  =          1 seconds =       0.02 minutes
Total time:
	user time   =     175.37 seconds =       2.92 minutes
	system time =       2.58 seconds =       0.04 minutes
	total time  =         47 seconds =       0.78 minutes

			-----------------------------------------
			 OPTKING 2.0: for geometry optimizations 
			  - R.A. King,  Bethel University        
			-----------------------------------------

	Previous internal coordinate definitions found.
	---Fragment 1 Geometry and Gradient---
	 C           2.0020801172       -0.5359381509        0.0146310069
	 C           3.6180187395        1.6657283494       -0.8420934736
	 O           2.9058750445        2.5995966410       -3.2356957968
	 H          -0.0021004662       -0.0100034901        0.0057752416
	 H           2.2408918870       -2.1684257627       -1.2480751669
	 H           2.5178596235       -1.1473478114        1.9280725969
	 H           5.6352874161        1.1301792694       -0.8026742033
	 H           3.3995943998        3.2619671255        0.4631289436
	 H           3.0942073654        1.2360606497       -4.4266549135
	             0.0000161103       -0.0000020626        0.0000164736
	            -0.0000264373       -0.0000020239       -0.0000184612
	             0.0000123827       -0.0000076046       -0.0000122718
	             0.0000104945        0.0000076603        0.0000007332
	            -0.0000032342        0.0000024269        0.0000014387
	             0.0000007257       -0.0000012995       -0.0000019509
	             0.0000032837       -0.0000053578        0.0000124925
	             0.0000080324       -0.0000110607        0.0000043554
	            -0.0000058043        0.0000018159       -0.0000028385

	---Fragment 1 Intrafragment Coordinates---
	 - Coordinate -           - BOHR/RAD -       - ANG/DEG -
	 R(1,2)           =         2.862267	       1.514646
	 R(1,4)           =         2.072058	       1.096486
	 R(1,5)           =         2.077613	       1.099425
	 R(1,6)           =         2.073912	       1.097467
	 R(2,3)           =         2.666194	       1.410889
	 R(2,7)           =         2.087520	       1.104668
	 R(2,8)           =         2.073474	       1.097235
	 R(3,9)           =         1.820188	       0.963202
	 B(1,2,3)         =         1.968543	     112.789197
	 B(1,2,7)         =         1.920455	     110.033953
	 B(1,2,8)         =         1.922262	     110.137484
	 B(2,1,4)         =         1.927889	     110.459875
	 B(2,1,5)         =         1.936486	     110.952503
	 B(2,1,6)         =         1.941766	     111.254976
	 B(2,3,9)         =         1.872749	     107.300586
	 B(3,2,7)         =         1.944348	     111.402926
	 B(3,2,8)         =         1.841433	     105.506321
	 B(4,1,5)         =         1.883911	     107.940166
	 B(4,1,6)         =         1.895813	     108.622073
	 B(5,1,6)         =         1.876021	     107.488081
	 B(7,2,8)         =         1.862319	     106.703006
	 D(1,2,3,9)       =        -1.051074	     -60.222096
	 D(3,2,1,4)       =        -0.972531	     -55.721895
	 D(3,2,1,5)       =         1.115986	      63.941305
	 D(3,2,1,6)       =        -3.079469	    -176.440603
	 D(4,1,2,7)       =         3.127843	     179.212209
	 D(4,1,2,8)       =         1.079557	      61.854038
	 D(5,1,2,7)       =        -1.066825	     -61.124590
	 D(5,1,2,8)       =        -3.115112	    -178.482762
	 D(6,1,2,7)       =         1.020904	      58.493501
	 D(6,1,2,8)       =        -1.027382	     -58.864670
	 D(7,2,3,9)       =         1.118682	      64.095757
	 D(8,2,3,9)       =         3.132981	     179.506569

	Current energy   :      -155.2222856283

	Energy change for the previous step:
		Projected    :        -0.0000004405
		Actual       :        -0.0000001183

	Performing BFGS update.
	Previous computed or guess Hessian on step 1.
	Steps to be used in Hessian update: 4 3
	Taking RFO optimization step.
	Going to follow RFO solution 1.
	Using RFO vector 1.
	Norm of target step-size    0.00146
	Projected energy change by RFO approximation:        -0.0000000070

	Back-transformation to cartesian coordinates...
	Successfully converged to displaced geometry.

	--- Internal Coordinate Step in ANG or DEG, aJ/ANG or AJ/DEG ---
	 ---------------------------------------------------------------------------
	   Coordinate                Previous        Force       Change         New 
	   ----------                --------       ------       ------       ------
	    1 R(1,2)          =      1.514646     0.000120     0.000019     1.514665
	    2 R(1,4)          =      1.096486     0.000058     0.000011     1.096497
	    3 R(1,5)          =      1.099425     0.000024     0.000007     1.099432
	    4 R(1,6)          =      1.097467     0.000023     0.000008     1.097475
	    5 R(2,3)          =      1.410889    -0.000096    -0.000004     1.410885
	    6 R(2,7)          =      1.104668    -0.000012    -0.000003     1.104665
	    7 R(2,8)          =      1.097235     0.000029     0.000008     1.097243
	    8 R(3,9)          =      0.963202     0.000031    -0.000000     0.963202
	    9 B(1,2,3)        =    112.789197    -0.000001    -0.005438   112.783760
	   10 B(1,2,7)        =    110.033953     0.000001     0.003144   110.037097
	   11 B(1,2,8)        =    110.137484     0.000001     0.004253   110.141737
	   12 B(2,1,4)        =    110.459875     0.000001     0.003617   110.463492
	   13 B(2,1,5)        =    110.952503     0.000000     0.000396   110.952899
	   14 B(2,1,6)        =    111.254976    -0.000000    -0.001591   111.253385
	   15 B(2,3,9)        =    107.300586    -0.000001    -0.003117   107.297470
	   16 B(3,2,7)        =    111.402926    -0.000000    -0.003660   111.399266
	   17 B(3,2,8)        =    105.506321    -0.000000    -0.003132   105.503189
	   18 B(4,1,5)        =    107.940166    -0.000000    -0.000101   107.940065
	   19 B(4,1,6)        =    108.622073    -0.000000    -0.001100   108.620974
	   20 B(5,1,6)        =    107.488081     0.000000    -0.001344   107.486737
	   21 B(7,2,8)        =    106.703006     0.000000     0.005328   106.708334
	   22 D(1,2,3,9)      =    -60.222096    -0.000000    -0.025170   -60.247266
	   23 D(3,2,1,4)      =    -55.721895     0.000000     0.021167   -55.700728
	   24 D(3,2,1,5)      =     63.941305     0.000000     0.023659    63.964965
	   25 D(3,2,1,6)      =   -176.440603     0.000000     0.021175  -176.419428
	   26 D(4,1,2,7)      =    179.212209     0.000000     0.027581   179.239790
	   27 D(4,1,2,8)      =     61.854038    -0.000000     0.016621    61.870659
	   28 D(5,1,2,7)      =    -61.124590     0.000000     0.030073   -61.094517
	   29 D(5,1,2,8)      =   -178.482762    -0.000000     0.019113  -178.463648
	   30 D(6,1,2,7)      =     58.493501     0.000000     0.027589    58.521090
	   31 D(6,1,2,8)      =    -58.864670    -0.000000     0.016630   -58.848041
	   32 D(7,2,3,9)      =     64.095757    -0.000000    -0.027984    64.067773
	   33 D(8,2,3,9)      =    179.506569    -0.000000    -0.025263   179.481305
	 ---------------------------------------------------------------------------
	Successfully symmetrized geometry.

  ==> Convergence Check <==

  Measures of convergence in internal coordinates in au.
  Criteria marked as inactive (o), active & met (*), and active & unmet ( ).
  ---------------------------------------------------------------------------------------------
   Step     Total Energy     Delta E     MAX Force     RMS Force      MAX Disp      RMS Disp   
  ---------------------------------------------------------------------------------------------
    Convergence Criteria    1.00e-06 *    3.00e-04 *             o    1.20e-03 *             o
  ---------------------------------------------------------------------------------------------
      5    -155.22228563   -1.18e-07 *    1.69e-05 *    7.14e-06 o    5.25e-04 *    2.54e-04 o  ~
  ---------------------------------------------------------------------------------------------


  **** Optimization is complete! (in 5 steps) ****

  ==> Optimization Summary <==

  Measures of convergence in internal coordinates in au.
  --------------------------------------------------------------------------------------------------------------- ~
   Step         Total Energy             Delta E       MAX Force       RMS Force        MAX Disp        RMS Disp  ~
  --------------------------------------------------------------------------------------------------------------- ~
      1    -155.221724586237   -155.221724586237      0.01777825      0.00370205      0.03089873      0.01363699  ~
      2    -155.222268904262     -0.000544318025      0.00116399      0.00035942      0.02565119      0.00728051  ~
      3    -155.222283630040     -0.000014725778      0.00057264      0.00016139      0.00835882      0.00248739  ~
      4    -155.222285509969     -0.000001879928      0.00017819      0.00004312      0.00152509      0.00077891  ~
      5    -155.222285628319     -0.000000118350      0.00001690      0.00000714      0.00052488      0.00025422  ~
  --------------------------------------------------------------------------------------------------------------- ~

	Writing optimization data to binary file.
	Final energy is   -155.2222856283187
	Final (previous) structure:
	Cartesian Geometry (in Angstrom)
	    C     1.0594551678  -0.2836062547   0.0077423954
	    C     1.9145730572   0.8814654782  -0.4456166737
	    O     1.5377228446   1.3756472940  -1.7122564696
	    H    -0.0011115188  -0.0052936190   0.0030561262
	    H     1.1858289135  -1.1474814921  -0.6604529329
	    H     1.3323939272  -0.6071503121   1.0202920748
	    H     2.9820656645   0.5980651110  -0.4247568943
	    H     1.7989878748   1.7261586580   0.2450772816
	    H     1.6373840164   0.6540951243  -2.3424848905
	Saving final (previous) structure.
			--------------------------
			 OPTKING Finished Execution 
			--------------------------

    Final optimized geometry and variables:
    Molecular point group: c1
    Full point group: C1

    Geometry (in Angstrom), charge = 0, multiplicity = 1:

    C            1.059455171960    -0.283606255795     0.007742395409
    C            1.914573064712     0.881465481675    -0.445616675463
    O            1.537722850608     1.375647299363    -1.712256476331
    H           -0.001111518847    -0.005293618981     0.003056126236
    H            1.185828918174    -1.147481496643    -0.660452935516
    H            1.332393932448    -0.607150314528     1.020292078781
    H            2.982065676177     0.598065113335    -0.424756895980
    H            1.798987881914     1.726158664746     0.245077282565
    H            1.637384022852     0.654095126827    -2.342484899700

	Removing binary optimization data file.
	Cleaning optimization helper files.

    Psi4 stopped on: Thursday, 01 August 2019 12:50PM
    Psi4 wall time for execution: 0:00:47.92

*** Psi4 exiting successfully. Buy a developer a beer!
