
    -----------------------------------------------------------------------
          Psi4: An Open-Source Ab Initio Electronic Structure Package
                               Psi4 1.3.2 release

                         Git: Rev {HEAD} ecbda83 


    R. M. Parrish, L. A. Burns, D. G. A. Smith, A. C. Simmonett,
    A. E. DePrince III, E. G. Hohenstein, U. Bozkaya, A. Yu. Sokolov,
    R. Di Remigio, R. M. Richard, J. F. Gonthier, A. M. James,
    H. R. McAlexander, A. Kumar, M. Saitow, X. Wang, B. P. Pritchard,
    P. Verma, H. F. Schaefer III, K. Patkowski, R. A. King, E. F. Valeev,
    F. A. Evangelista, J. M. Turney, T. D. Crawford, and C. D. Sherrill,
    J. Chem. Theory Comput. 13(7) pp 3185--3197 (2017).
    (doi: 10.1021/acs.jctc.7b00174)


                         Additional Contributions by
    P. Kraus, H. Kruse, M. H. Lechner, M. C. Schieber, R. A. Shaw,
    A. Alenaizan, R. Galvelis, Z. L. Glick, S. Lehtola, and J. P. Misiewicz

    -----------------------------------------------------------------------


    Psi4 started on: Tuesday, 23 July 2019 05:25PM

    Process ID: 30611
    Host:       michael-HP
    PSIDATADIR: /home/michael/anaconda3/envs/RESP2/share/psi4
    Memory:     500.0 MiB
    Threads:    1
    
  ==> Input File <==

--------------------------------------------------------------------------
memory 12 gb
molecule meoh {
noreorient
nocom
0 1
C     1.0710    -0.2620    -0.0070
C     1.9170     0.9160    -0.4230
O     1.5020     1.3070    -1.7150
H     0.0100     0.0150     0.0010
H     1.2000    -1.0900    -0.7140
H     1.3500    -0.6100     0.9940
H     2.9840     0.6330    -0.4120
H     1.7940     1.7400     0.3030
H     2.0390     2.0580    -1.9840
}
set {
basis 6-31G*
}
E,wfn = prop('HF' , properties = ['GRID_ESP', 'GRID_FIELD'], return_wfn=True)
--------------------------------------------------------------------------

  Memory set to  11.176 GiB by Python driver.

*** tstart() called on michael-HP
*** at Tue Jul 23 17:25:09 2019

   => Loading Basis Set <=

    Name: 6-31G*
    Role: ORBITAL
    Keyword: BASIS
    atoms 1-2 entry C          line   111 file /home/michael/anaconda3/envs/RESP2/share/psi4/basis/6-31gs.gbs 
    atoms 3   entry O          line   145 file /home/michael/anaconda3/envs/RESP2/share/psi4/basis/6-31gs.gbs 
    atoms 4-9 entry H          line    44 file /home/michael/anaconda3/envs/RESP2/share/psi4/basis/6-31gs.gbs 


         ---------------------------------------------------------
                                   SCF
               by Justin Turney, Rob Parrish, Andy Simmonett
                          and Daniel G. A. Smith
                              RHF Reference
                        1 Threads,  11444 MiB Core
         ---------------------------------------------------------

  ==> Geometry <==

    Molecular point group: c1
    Full point group: C1

    Geometry (in Angstrom), charge = 0, multiplicity = 1:

       Center              X                  Y                   Z               Mass       
    ------------   -----------------  -----------------  -----------------  -----------------
         C            1.071000000000    -0.262000000000    -0.007000000000    12.000000000000
         C            1.917000000000     0.916000000000    -0.423000000000    12.000000000000
         O            1.502000000000     1.307000000000    -1.715000000000    15.994914619570
         H            0.010000000000     0.015000000000     0.001000000000     1.007825032230
         H            1.200000000000    -1.090000000000    -0.714000000000     1.007825032230
         H            1.350000000000    -0.610000000000     0.994000000000     1.007825032230
         H            2.984000000000     0.633000000000    -0.412000000000     1.007825032230
         H            1.794000000000     1.740000000000     0.303000000000     1.007825032230
         H            2.039000000000     2.058000000000    -1.984000000000     1.007825032230

  Running in c1 symmetry.

  Rotational constants: A =      0.52417  B =      0.08853  C =      0.08043 [cm^-1]
  Rotational constants: A =  15714.13457  B =   2654.01098  C =   2411.22352 [MHz]
  Nuclear repulsion =   82.073822397899093

  Charge       = 0
  Multiplicity = 1
  Electrons    = 26
  Nalpha       = 13
  Nbeta        = 13

  ==> Algorithm <==

  SCF Algorithm Type is DF.
  DIIS enabled.
  MOM disabled.
  Fractional occupation disabled.
  Guess Type is SAD.
  Energy threshold   = 1.00e-06
  Density threshold  = 1.00e-06
  Integral threshold = 0.00e+00

  ==> Primary Basis <==

  Basis Set: 6-31G*
    Blend: 6-31G*
    Number of shells: 30
    Number of basis function: 57
    Number of Cartesian functions: 57
    Spherical Harmonics?: false
    Max angular momentum: 2

   => Loading Basis Set <=

    Name: (6-31G* AUX)
    Role: JKFIT
    Keyword: DF_BASIS_SCF
    atoms 1-2 entry C          line   121 file /home/michael/anaconda3/envs/RESP2/share/psi4/basis/cc-pvdz-jkfit.gbs 
    atoms 3   entry O          line   221 file /home/michael/anaconda3/envs/RESP2/share/psi4/basis/cc-pvdz-jkfit.gbs 
    atoms 4-9 entry H          line    51 file /home/michael/anaconda3/envs/RESP2/share/psi4/basis/cc-pvdz-jkfit.gbs 

  ==> Pre-Iterations <==

   -------------------------------------------------------
    Irrep   Nso     Nmo     Nalpha   Nbeta   Ndocc  Nsocc
   -------------------------------------------------------
     A         57      57       0       0       0       0
   -------------------------------------------------------
    Total      57      57      13      13      13       0
   -------------------------------------------------------

  ==> Integral Setup <==

  DFHelper Memory: AOs need 0.011 GiB; user supplied 8.382 GiB. Using in-core AOs.

  ==> MemDFJK: Density-Fitted J/K Matrices <==

    J tasked:                   Yes
    K tasked:                   Yes
    wK tasked:                   No
    OpenMP threads:               1
    Memory [MiB]:              8583
    Algorithm:                 Core
    Schwarz Cutoff:           1E-12
    Mask sparsity (%):       0.0616
    Fitting Condition:        1E-10

   => Auxiliary Basis Set <=

  Basis Set: (6-31G* AUX)
    Blend: CC-PVDZ-JKFIT
    Number of shells: 126
    Number of basis function: 393
    Number of Cartesian functions: 393
    Spherical Harmonics?: false
    Max angular momentum: 3

  Minimum eigenvalue in the overlap matrix is 5.8279657241E-03.
  Using Symmetric Orthogonalization.

  SCF Guess: Superposition of Atomic Densities via on-the-fly atomic UHF.

  ==> Iterations <==

                           Total Energy        Delta E     RMS |[F,P]|

   @DF-RHF iter SAD:  -153.33717186392826   -1.53337e+02   0.00000e+00 
   @DF-RHF iter   1:  -153.98097847265916   -6.43807e-01   7.34173e-03 DIIS
   @DF-RHF iter   2:  -154.05598768322190   -7.50092e-02   3.82064e-03 DIIS
   @DF-RHF iter   3:  -154.07360538494927   -1.76177e-02   6.30380e-04 DIIS
   @DF-RHF iter   4:  -154.07456012981490   -9.54745e-04   1.92292e-04 DIIS
   @DF-RHF iter   5:  -154.07462879886981   -6.86691e-05   3.92957e-05 DIIS
   @DF-RHF iter   6:  -154.07463275267708   -3.95381e-06   7.15173e-06 DIIS
   @DF-RHF iter   7:  -154.07463292732865   -1.74652e-07   1.72600e-06 DIIS
   @DF-RHF iter   8:  -154.07463293635152   -9.02287e-09   5.69066e-07 DIIS
  Energy and wave function converged.


  ==> Post-Iterations <==

    Orbital Energies [Eh]
    ---------------------

    Doubly Occupied:                                                      

       1A    -20.557068     2A    -11.275128     3A    -11.212637  
       4A     -1.356078     5A     -1.010271     6A     -0.829712  
       7A     -0.697903     8A     -0.641580     9A     -0.568815  
      10A     -0.530768    11A     -0.520866    12A     -0.485280  
      13A     -0.434898  

    Virtual:                                                              

      14A      0.223826    15A      0.262902    16A      0.307218  
      17A      0.309259    18A      0.326809    19A      0.349983  
      20A      0.400026    21A      0.414891    22A      0.723755  
      23A      0.761803    24A      0.794867    25A      0.818283  
      26A      0.907119    27A      0.940146    28A      1.081052  
      29A      1.113867    30A      1.152573    31A      1.171482  
      32A      1.182902    33A      1.191410    34A      1.242704  
      35A      1.286003    36A      1.297094    37A      1.429523  
      38A      1.645648    39A      1.716800    40A      1.760878  
      41A      1.917218    42A      2.033855    43A      2.095318  
      44A      2.232074    45A      2.272741    46A      2.374900  
      47A      2.496729    48A      2.563989    49A      2.667206  
      50A      2.729188    51A      2.756920    52A      2.846233  
      53A      2.975174    54A      3.210533    55A      4.147111  
      56A      4.601986    57A      4.823819  

    Final Occupation by Irrep:
              A 
    DOCC [    13 ]

  @DF-RHF Final Energy:  -154.07463293635152

   => Energetics <=

    Nuclear Repulsion Energy =             82.0738223978990931
    One-Electron Energy =                -372.0549848910118271
    Two-Electron Energy =                 135.9065295567611997
    Total Energy =                       -154.0746329363515201

Computation Completed


Properties will be evaluated at   0.000000,   0.000000,   0.000000 [a0]

Properties computed using the HF density matrix

  Nuclear Dipole Moment: [e a0]
     X:    74.3059      Y:    32.3634      Z:   -34.2267

  Electronic Dipole Moment: [e a0]
     X:   -73.7994      Y:   -32.0553      Z:    34.5894

  Dipole Moment: [e a0]
     X:     0.5065      Y:     0.3081      Z:     0.3627     Total:     0.6950

  Dipole Moment: [D]
     X:     1.2874      Y:     0.7831      Z:     0.9218     Total:     1.7664


 Field computed on the grid and written to grid_field.dat

 Electrostatic potential computed on the grid and written to grid_esp.dat

*** tstop() called on michael-HP at Tue Jul 23 17:25:15 2019
Module time:
	user time   =       5.38 seconds =       0.09 minutes
	system time =       0.04 seconds =       0.00 minutes
	total time  =          6 seconds =       0.10 minutes
Total time:
	user time   =       5.38 seconds =       0.09 minutes
	system time =       0.04 seconds =       0.00 minutes
	total time  =          6 seconds =       0.10 minutes

    Psi4 stopped on: Tuesday, 23 July 2019 05:25PM
    Psi4 wall time for execution: 0:00:05.44

*** Psi4 exiting successfully. Buy a developer a beer!
