
    -----------------------------------------------------------------------
          Psi4: An Open-Source Ab Initio Electronic Structure Package
                               Psi4 1.3.2 release

                         Git: Rev {HEAD} ecbda83 


    R. M. Parrish, L. A. Burns, D. G. A. Smith, A. C. Simmonett,
    A. E. DePrince III, E. G. Hohenstein, U. Bozkaya, A. Yu. Sokolov,
    R. Di Remigio, R. M. Richard, J. F. Gonthier, A. M. James,
    H. R. McAlexander, A. Kumar, M. Saitow, X. Wang, B. P. Pritchard,
    P. Verma, H. F. Schaefer III, K. Patkowski, R. A. King, E. F. Valeev,
    F. A. Evangelista, J. M. Turney, T. D. Crawford, and C. D. Sherrill,
    J. Chem. Theory Comput. 13(7) pp 3185--3197 (2017).
    (doi: 10.1021/acs.jctc.7b00174)


                         Additional Contributions by
    P. Kraus, H. Kruse, M. H. Lechner, M. C. Schieber, R. A. Shaw,
    A. Alenaizan, R. Galvelis, Z. L. Glick, S. Lehtola, and J. P. Misiewicz

    -----------------------------------------------------------------------


    Psi4 started on: Tuesday, 23 July 2019 05:20PM

    Process ID: 30166
    Host:       michael-HP
    PSIDATADIR: /home/michael/anaconda3/envs/RESP2/share/psi4
    Memory:     500.0 MiB
    Threads:    1
    
  ==> Input File <==

--------------------------------------------------------------------------
memory 12 gb
molecule meoh {
noreorient
nocom
0 1
C     1.0590    -0.2840     0.0080
C     1.9150     0.8810    -0.4460
O     1.5380     1.3760    -1.7120
H    -0.0010    -0.0050     0.0030
H     1.1860    -1.1470    -0.6600
H     1.3320    -0.6070     1.0200
H     2.9820     0.5980    -0.4250
H     1.7990     1.7260     0.2450
H     1.6370     0.6540    -2.3420
}
set {
  basis aug-cc-pV(D+d)Z
  pcm true
  pcm_scf_type total
}
pcm = {
  Units = Angstrom
  Medium {
  SolverType = CPCM # IEFPCM| CPCM
  Solvent = water
  }
  Cavity {
  RadiiSet = Bondi # Bondi| UFF| Allinger
  Type = GePol
  Scaling = True # radii for the spheres will be scaled by 1.2
  Area = 0.3
  Mode = Implicit
  }
}
E,wfn = prop('PW6B95' , properties = ['GRID_ESP', 'GRID_FIELD'], return_wfn=True)
--------------------------------------------------------------------------

  Memory set to  11.176 GiB by Python driver.

*** tstart() called on michael-HP
*** at Tue Jul 23 17:20:03 2019

   => Loading Basis Set <=

    Name: AUG-CC-PV(D+D)Z
    Role: ORBITAL
    Keyword: BASIS
    atoms 1-2 entry C          line   198 file /home/michael/anaconda3/envs/RESP2/share/psi4/basis/aug-cc-pv_dpd_z.gbs 
    atoms 3   entry O          line   270 file /home/michael/anaconda3/envs/RESP2/share/psi4/basis/aug-cc-pv_dpd_z.gbs 
    atoms 4-9 entry H          line    56 file /home/michael/anaconda3/envs/RESP2/share/psi4/basis/aug-cc-pv_dpd_z.gbs 


         ---------------------------------------------------------
                                   SCF
               by Justin Turney, Rob Parrish, Andy Simmonett
                          and Daniel G. A. Smith
                              RKS Reference
                        1 Threads,  11444 MiB Core
         ---------------------------------------------------------

  ==> Geometry <==

    Molecular point group: c1
    Full point group: C1

    Geometry (in Angstrom), charge = 0, multiplicity = 1:

       Center              X                  Y                   Z               Mass       
    ------------   -----------------  -----------------  -----------------  -----------------
         C            1.059000000000    -0.284000000000     0.008000000000    12.000000000000
         C            1.915000000000     0.881000000000    -0.446000000000    12.000000000000
         O            1.538000000000     1.376000000000    -1.712000000000    15.994914619570
         H           -0.001000000000    -0.005000000000     0.003000000000     1.007825032230
         H            1.186000000000    -1.147000000000    -0.660000000000     1.007825032230
         H            1.332000000000    -0.607000000000     1.020000000000     1.007825032230
         H            2.982000000000     0.598000000000    -0.425000000000     1.007825032230
         H            1.799000000000     1.726000000000     0.245000000000     1.007825032230
         H            1.637000000000     0.654000000000    -2.342000000000     1.007825032230

  Running in c1 symmetry.

  Rotational constants: A =      0.51247  B =      0.08865  C =      0.08067 [cm^-1]
  Rotational constants: A =  15363.48316  B =   2657.60271  C =   2418.45830 [MHz]
  Nuclear repulsion =   81.895671070306875

  Charge       = 0
  Multiplicity = 1
  Electrons    = 26
  Nalpha       = 13
  Nbeta        = 13

  ==> Algorithm <==

  SCF Algorithm Type is DF.
  DIIS enabled.
  MOM disabled.
  Fractional occupation disabled.
  Guess Type is SAD.
  Energy threshold   = 1.00e-06
  Density threshold  = 1.00e-06
  Integral threshold = 0.00e+00

  ==> Primary Basis <==

  Basis Set: AUG-CC-PV(D+D)Z
    Blend: AUG-CC-PV(D+D)Z
    Number of shells: 57
    Number of basis function: 123
    Number of Cartesian functions: 129
    Spherical Harmonics?: true
    Max angular momentum: 2

  ==> DFT Potential <==

   => Composite Functional: PW6B95 <= 

    PW6B95 Hybrid Meta-GGA XC Functional

    Y. Zhao and D. Truhlar, J. Phys. Chem. A., 109,5656-5667, 2005


    Deriv               =              1
    GGA                 =           TRUE
    Meta                =           TRUE

    Exchange Hybrid     =           TRUE
    MP2 Hybrid          =          FALSE

   => Exchange Functionals <=

    0.7200    XC_GGA_X_PW91

   => Exact (HF) Exchange <=

    0.2800               HF 

   => Correlation Functionals <=

    1.0000   XC_MGGA_C_BC95

   => Molecular Quadrature <=

    Radial Scheme          =       TREUTLER
    Pruning Scheme         =           FLAT
    Nuclear Scheme         =       TREUTLER

    BS radius alpha        =              1
    Pruning alpha          =              1
    Radial Points          =             75
    Spherical Points       =            302
    Total Points           =         203850
    Total Blocks           =           1584
    Max Points             =            256
    Max Functions          =            123

   => Loading Basis Set <=

    Name: (AUG-CC-PV(D+D)Z AUX)
    Role: JKFIT
    Keyword: DF_BASIS_SCF
    atoms 1-2 entry C          line   154 file /home/michael/anaconda3/envs/RESP2/share/psi4/basis/aug-cc-pvdz-jkfit.gbs 
    atoms 3   entry O          line   270 file /home/michael/anaconda3/envs/RESP2/share/psi4/basis/aug-cc-pvdz-jkfit.gbs 
    atoms 4-9 entry H          line    70 file /home/michael/anaconda3/envs/RESP2/share/psi4/basis/aug-cc-pvdz-jkfit.gbs 

  **PSI4:PCMSOLVER Interface Active**

-----------------------------------------------------------------------
   PCMSolver: An Open Source API for the Polarizable Continuum Model
                   PCMSolver 1.2.1+fa7c826

           Git: Branch {HEAD}, Revision {fa7c826}

 R. Di Remigio, A. H. Steindal, K. Mozgawa, V. Weijo, H. Cao, and
 L. Frediani, Int. J. Quantum Chem., to be submitted

 Source repository: https://github.com/PCMSolver/pcmsolver
 Documentation: https://pcmsolver.readthedocs.io/
 PCMSolver initialized on: Tuesday, 23 July 2019 05:20 PM
-----------------------------------------------------------------------

~~~~~~~~~~ PCMSolver ~~~~~~~~~~
Using CODATA 2010 set of constants.
Input parsing done API-side
========== Cavity 
Atomic radii set: 
Cavity type: GePol
Average tesserae area = 0.3 Ang^2
Solvent probe radius = 1.385 Ang
Number of spheres = 9 [initial = 9; added = 0]
Number of finite elements = 480
Number of irreducible finite elements = 480
============ Spheres list (in Angstrom)
 Sphere   on   Radius   Alpha       X            Y            Z     
-------- ---- -------- ------- -----------  -----------  -----------
   1      C    1.7000   1.20     1.059000     -0.284000     0.008000
   2      C    1.7000   1.20     1.915000     0.881000     -0.446000
   3      O    1.5200   1.20     1.538000     1.376000     -1.712000
   4      H    1.2000   1.20     -0.001000     -0.005000     0.003000
   5      H    1.2000   1.20     1.186000     -1.147000     -0.660000
   6      H    1.2000   1.20     1.332000     -0.607000     1.020000
   7      H    1.2000   1.20     2.982000     0.598000     -0.425000
   8      H    1.2000   1.20     1.799000     1.726000     0.245000
   9      H    1.2000   1.20     1.637000     0.654000     -2.342000
========== Static solver 
Solver Type: C-PCM
PCM matrix hermitivitized
Correction = 0.00
============ Medium 
Medium initialized from solvent built-in data.
Solvent name:          Water
Static  permittivity = 78.39
Optical permittivity = 1.78
Solvent radius =       1.39 Ang
.... Inside 
Green's function type: vacuum
.... Outside 
Green's function type: uniform dielectric
Permittivity = 78.39

  PCM does not make use of molecular symmetry: further calculations in C1 point group.
  ==> Pre-Iterations <==

   -------------------------------------------------------
    Irrep   Nso     Nmo     Nalpha   Nbeta   Ndocc  Nsocc
   -------------------------------------------------------
     A        123     123       0       0       0       0
   -------------------------------------------------------
    Total     123     123      13      13      13       0
   -------------------------------------------------------

  ==> Integral Setup <==

  DFHelper Memory: AOs need 0.055 GiB; user supplied 6.661 GiB. Using in-core AOs.

  ==> MemDFJK: Density-Fitted J/K Matrices <==

    J tasked:                   Yes
    K tasked:                   Yes
    wK tasked:                   No
    OpenMP threads:               1
    Memory [MiB]:              6821
    Algorithm:                 Core
    Schwarz Cutoff:           1E-12
    Mask sparsity (%):       0.0000
    Fitting Condition:        1E-10

   => Auxiliary Basis Set <=

  Basis Set: (AUG-CC-PV(D+D)Z AUX)
    Blend: AUG-CC-PVDZ-JKFIT
    Number of shells: 156
    Number of basis function: 450
    Number of Cartesian functions: 513
    Spherical Harmonics?: true
    Max angular momentum: 3

  Cached 100.0% of DFT collocation blocks in 1.721 [GiB].

  Minimum eigenvalue in the overlap matrix is 1.2114794000E-04.
  Using Symmetric Orthogonalization.

  SCF Guess: Superposition of Atomic Densities via on-the-fly atomic UHF.

  ==> Iterations <==

                           Total Energy        Delta E     RMS |[F,P]|

   @DF-RKS iter SAD:  -154.62420385808204   -1.54624e+02   0.00000e+00 
   @DF-RKS iter   1:  -154.89522303772503   -2.71019e-01   6.83751e-03 DIIS
   @DF-RKS iter   2:  -154.71257481706132    1.82648e-01   8.52445e-03 DIIS
   @DF-RKS iter   3:  -155.24113494069465   -5.28560e-01   1.06209e-03 DIIS
   @DF-RKS iter   4:  -155.24649610530832   -5.36116e-03   4.52027e-04 DIIS
   @DF-RKS iter   5:  -155.24779290650801   -1.29680e-03   5.05707e-05 DIIS
   @DF-RKS iter   6:  -155.24780785822418   -1.49517e-05   1.82388e-05 DIIS
   @DF-RKS iter   7:  -155.24781012131086   -2.26309e-06   4.11971e-06 DIIS
   @DF-RKS iter   8:  -155.24781025368281   -1.32372e-07   2.85948e-07 DIIS
  Energy and wave function converged.


  ==> Post-Iterations <==

    Orbital Energies [Eh]
    ---------------------

    Doubly Occupied:                                                      

       1A    -19.319817     2A    -10.348852     3A    -10.293944  
       4A     -1.062531     5A     -0.769000     6A     -0.644216  
       7A     -0.523881     8A     -0.470792     9A     -0.451730  
      10A     -0.396589    11A     -0.385283    12A     -0.344161  
      13A     -0.298529  

    Virtual:                                                              

      14A     -0.000787    15A      0.020164    16A      0.023249  
      17A      0.027793    18A      0.054821    19A      0.059872  
      20A      0.073945    21A      0.079092    22A      0.096976  
      23A      0.107115    24A      0.119228    25A      0.124348  
      26A      0.127181    27A      0.142983    28A      0.164123  
      29A      0.167538    30A      0.186565    31A      0.187535  
      32A      0.204533    33A      0.215473    34A      0.218722  
      35A      0.239184    36A      0.260865    37A      0.285067  
      38A      0.293465    39A      0.327188    40A      0.345267  
      41A      0.349209    42A      0.357954    43A      0.373171  
      44A      0.378446    45A      0.385853    46A      0.405832  
      47A      0.415724    48A      0.429883    49A      0.459667  
      50A      0.472074    51A      0.477521    52A      0.496252  
      53A      0.507895    54A      0.515026    55A      0.528737  
      56A      0.548423    57A      0.563585    58A      0.588380  
      59A      0.599048    60A      0.617387    61A      0.629360  
      62A      0.641493    63A      0.661850    64A      0.677270  
      65A      0.701376    66A      0.742621    67A      0.773485  
      68A      0.786706    69A      0.831916    70A      0.854345  
      71A      0.900596    72A      0.928661    73A      0.989429  
      74A      1.014165    75A      1.029950    76A      1.075763  
      77A      1.080766    78A      1.120024    79A      1.182753  
      80A      1.263754    81A      1.285722    82A      1.320856  
      83A      1.354858    84A      1.467826    85A      1.519941  
      86A      1.563424    87A      1.581525    88A      1.611275  
      89A      1.654070    90A      1.672438    91A      1.685112  
      92A      1.725635    93A      1.795726    94A      1.808650  
      95A      1.855545    96A      1.864123    97A      1.914635  
      98A      1.934336    99A      1.941875   100A      1.967001  
     101A      1.975881   102A      2.048555   103A      2.063204  
     104A      2.203648   105A      2.222769   106A      2.260543  
     107A      2.321174   108A      2.356026   109A      2.409914  
     110A      2.460498   111A      2.520369   112A      2.536283  
     113A      2.590998   114A      2.699548   115A      2.731246  
     116A      2.756291   117A      2.796689   118A      2.963811  
     119A      3.394526   120A      3.406791   121A      3.461150  
     122A      3.546347   123A      3.913657  

    Final Occupation by Irrep:
              A 
    DOCC [    13 ]

  @DF-RKS Final Energy:  -155.24781025368281

   => Energetics <=

    Nuclear Repulsion Energy =             81.8956710703068751
    One-Electron Energy =                -371.9157052402434260
    Two-Electron Energy =                 150.8599489532306563
    DFT Exchange-Correlation Energy =     -16.0804466439757725
    Empirical Dispersion Energy =           0.0000000000000000
    VV10 Nonlocal Energy =                  0.0000000000000000
    PCM Polarization Energy =              -0.0072783930011750
    Total Energy =                       -155.2478102536828146

Computation Completed


Properties will be evaluated at   0.000000,   0.000000,   0.000000 [a0]

Properties computed using the PW6B95 density matrix

  Nuclear Dipole Moment: [e a0]
     X:    73.8562      Y:    29.8747      Z:   -34.9278

  Electronic Dipole Moment: [e a0]
     X:   -73.6151      Y:   -30.6674      Z:    35.1345

  Dipole Moment: [e a0]
     X:     0.2411      Y:    -0.7927      Z:     0.2067     Total:     0.8539

  Dipole Moment: [D]
     X:     0.6128      Y:    -2.0148      Z:     0.5254     Total:     2.1705


 Field computed on the grid and written to grid_field.dat

 Electrostatic potential computed on the grid and written to grid_esp.dat

*** tstop() called on michael-HP at Tue Jul 23 17:21:45 2019
Module time:
	user time   =      99.70 seconds =       1.66 minutes
	system time =       1.46 seconds =       0.02 minutes
	total time  =        102 seconds =       1.70 minutes
Total time:
	user time   =      99.70 seconds =       1.66 minutes
	system time =       1.46 seconds =       0.02 minutes
	total time  =        102 seconds =       1.70 minutes

    Psi4 stopped on: Tuesday, 23 July 2019 05:21PM
    Psi4 wall time for execution: 0:01:42.04

*** Psi4 exiting successfully. Buy a developer a beer!
