
    -----------------------------------------------------------------------
          Psi4: An Open-Source Ab Initio Electronic Structure Package
                               Psi4 1.3.2 release

                         Git: Rev {HEAD} ecbda83 


    R. M. Parrish, L. A. Burns, D. G. A. Smith, A. C. Simmonett,
    A. E. DePrince III, E. G. Hohenstein, U. Bozkaya, A. Yu. Sokolov,
    R. Di Remigio, R. M. Richard, J. F. Gonthier, A. M. James,
    H. R. McAlexander, A. Kumar, M. Saitow, X. Wang, B. P. Pritchard,
    P. Verma, H. F. Schaefer III, K. Patkowski, R. A. King, E. F. Valeev,
    F. A. Evangelista, J. M. Turney, T. D. Crawford, and C. D. Sherrill,
    J. Chem. Theory Comput. 13(7) pp 3185--3197 (2017).
    (doi: 10.1021/acs.jctc.7b00174)


                         Additional Contributions by
    P. Kraus, H. Kruse, M. H. Lechner, M. C. Schieber, R. A. Shaw,
    A. Alenaizan, R. Galvelis, Z. L. Glick, S. Lehtola, and J. P. Misiewicz

    -----------------------------------------------------------------------


    Psi4 started on: Tuesday, 23 July 2019 05:23PM

    Process ID: 30577
    Host:       michael-HP
    PSIDATADIR: /home/michael/anaconda3/envs/RESP2/share/psi4
    Memory:     500.0 MiB
    Threads:    1
    
  ==> Input File <==

--------------------------------------------------------------------------
memory 12 gb
molecule meoh {
noreorient
nocom
0 1
C     1.0590    -0.2840     0.0080
C     1.9150     0.8810    -0.4460
O     1.5380     1.3760    -1.7120
H    -0.0010    -0.0050     0.0030
H     1.1860    -1.1470    -0.6600
H     1.3320    -0.6070     1.0200
H     2.9820     0.5980    -0.4250
H     1.7990     1.7260     0.2450
H     1.6370     0.6540    -2.3420
}
set {
basis aug-cc-pV(D+d)Z
}
E,wfn = prop('PW6B95' , properties = ['GRID_ESP', 'GRID_FIELD'], return_wfn=True)
--------------------------------------------------------------------------

  Memory set to  11.176 GiB by Python driver.

*** tstart() called on michael-HP
*** at Tue Jul 23 17:23:39 2019

   => Loading Basis Set <=

    Name: AUG-CC-PV(D+D)Z
    Role: ORBITAL
    Keyword: BASIS
    atoms 1-2 entry C          line   198 file /home/michael/anaconda3/envs/RESP2/share/psi4/basis/aug-cc-pv_dpd_z.gbs 
    atoms 3   entry O          line   270 file /home/michael/anaconda3/envs/RESP2/share/psi4/basis/aug-cc-pv_dpd_z.gbs 
    atoms 4-9 entry H          line    56 file /home/michael/anaconda3/envs/RESP2/share/psi4/basis/aug-cc-pv_dpd_z.gbs 


         ---------------------------------------------------------
                                   SCF
               by Justin Turney, Rob Parrish, Andy Simmonett
                          and Daniel G. A. Smith
                              RKS Reference
                        1 Threads,  11444 MiB Core
         ---------------------------------------------------------

  ==> Geometry <==

    Molecular point group: c1
    Full point group: C1

    Geometry (in Angstrom), charge = 0, multiplicity = 1:

       Center              X                  Y                   Z               Mass       
    ------------   -----------------  -----------------  -----------------  -----------------
         C            1.059000000000    -0.284000000000     0.008000000000    12.000000000000
         C            1.915000000000     0.881000000000    -0.446000000000    12.000000000000
         O            1.538000000000     1.376000000000    -1.712000000000    15.994914619570
         H           -0.001000000000    -0.005000000000     0.003000000000     1.007825032230
         H            1.186000000000    -1.147000000000    -0.660000000000     1.007825032230
         H            1.332000000000    -0.607000000000     1.020000000000     1.007825032230
         H            2.982000000000     0.598000000000    -0.425000000000     1.007825032230
         H            1.799000000000     1.726000000000     0.245000000000     1.007825032230
         H            1.637000000000     0.654000000000    -2.342000000000     1.007825032230

  Running in c1 symmetry.

  Rotational constants: A =      0.51247  B =      0.08865  C =      0.08067 [cm^-1]
  Rotational constants: A =  15363.48316  B =   2657.60271  C =   2418.45830 [MHz]
  Nuclear repulsion =   81.895671070306875

  Charge       = 0
  Multiplicity = 1
  Electrons    = 26
  Nalpha       = 13
  Nbeta        = 13

  ==> Algorithm <==

  SCF Algorithm Type is DF.
  DIIS enabled.
  MOM disabled.
  Fractional occupation disabled.
  Guess Type is SAD.
  Energy threshold   = 1.00e-06
  Density threshold  = 1.00e-06
  Integral threshold = 0.00e+00

  ==> Primary Basis <==

  Basis Set: AUG-CC-PV(D+D)Z
    Blend: AUG-CC-PV(D+D)Z
    Number of shells: 57
    Number of basis function: 123
    Number of Cartesian functions: 129
    Spherical Harmonics?: true
    Max angular momentum: 2

  ==> DFT Potential <==

   => Composite Functional: PW6B95 <= 

    PW6B95 Hybrid Meta-GGA XC Functional

    Y. Zhao and D. Truhlar, J. Phys. Chem. A., 109,5656-5667, 2005


    Deriv               =              1
    GGA                 =           TRUE
    Meta                =           TRUE

    Exchange Hybrid     =           TRUE
    MP2 Hybrid          =          FALSE

   => Exchange Functionals <=

    0.7200    XC_GGA_X_PW91

   => Exact (HF) Exchange <=

    0.2800               HF 

   => Correlation Functionals <=

    1.0000   XC_MGGA_C_BC95

   => Molecular Quadrature <=

    Radial Scheme          =       TREUTLER
    Pruning Scheme         =           FLAT
    Nuclear Scheme         =       TREUTLER

    BS radius alpha        =              1
    Pruning alpha          =              1
    Radial Points          =             75
    Spherical Points       =            302
    Total Points           =         203850
    Total Blocks           =           1584
    Max Points             =            256
    Max Functions          =            123

   => Loading Basis Set <=

    Name: (AUG-CC-PV(D+D)Z AUX)
    Role: JKFIT
    Keyword: DF_BASIS_SCF
    atoms 1-2 entry C          line   154 file /home/michael/anaconda3/envs/RESP2/share/psi4/basis/aug-cc-pvdz-jkfit.gbs 
    atoms 3   entry O          line   270 file /home/michael/anaconda3/envs/RESP2/share/psi4/basis/aug-cc-pvdz-jkfit.gbs 
    atoms 4-9 entry H          line    70 file /home/michael/anaconda3/envs/RESP2/share/psi4/basis/aug-cc-pvdz-jkfit.gbs 

  ==> Pre-Iterations <==

   -------------------------------------------------------
    Irrep   Nso     Nmo     Nalpha   Nbeta   Ndocc  Nsocc
   -------------------------------------------------------
     A        123     123       0       0       0       0
   -------------------------------------------------------
    Total     123     123      13      13      13       0
   -------------------------------------------------------

  ==> Integral Setup <==

  DFHelper Memory: AOs need 0.055 GiB; user supplied 6.661 GiB. Using in-core AOs.

  ==> MemDFJK: Density-Fitted J/K Matrices <==

    J tasked:                   Yes
    K tasked:                   Yes
    wK tasked:                   No
    OpenMP threads:               1
    Memory [MiB]:              6821
    Algorithm:                 Core
    Schwarz Cutoff:           1E-12
    Mask sparsity (%):       0.0000
    Fitting Condition:        1E-10

   => Auxiliary Basis Set <=

  Basis Set: (AUG-CC-PV(D+D)Z AUX)
    Blend: AUG-CC-PVDZ-JKFIT
    Number of shells: 156
    Number of basis function: 450
    Number of Cartesian functions: 513
    Spherical Harmonics?: true
    Max angular momentum: 3

  Cached 100.0% of DFT collocation blocks in 1.721 [GiB].

  Minimum eigenvalue in the overlap matrix is 1.2114794000E-04.
  Using Symmetric Orthogonalization.

  SCF Guess: Superposition of Atomic Densities via on-the-fly atomic UHF.

  ==> Iterations <==

                           Total Energy        Delta E     RMS |[F,P]|

   @DF-RKS iter SAD:  -154.62210909511066   -1.54622e+02   0.00000e+00 
   @DF-RKS iter   1:  -154.87972582482396   -2.57617e-01   6.90310e-03 DIIS
   @DF-RKS iter   2:  -154.64503472082092    2.34691e-01   8.96111e-03 DIIS
   @DF-RKS iter   3:  -155.23382277024962   -5.88788e-01   1.12628e-03 DIIS
   @DF-RKS iter   4:  -155.23975689108713   -5.93412e-03   5.25147e-04 DIIS
   @DF-RKS iter   5:  -155.24149598487506   -1.73909e-03   6.80862e-05 DIIS
   @DF-RKS iter   6:  -155.24152405336417   -2.80685e-05   2.27119e-05 DIIS
   @DF-RKS iter   7:  -155.24152751206407   -3.45870e-06   5.02883e-06 DIIS
   @DF-RKS iter   8:  -155.24152770721369   -1.95150e-07   6.27521e-07 DIIS
  Energy and wave function converged.


  ==> Post-Iterations <==

    Orbital Energies [Eh]
    ---------------------

    Doubly Occupied:                                                      

       1A    -19.316677     2A    -10.352590     3A    -10.301351  
       4A     -1.060180     5A     -0.774277     6A     -0.647703  
       7A     -0.525544     8A     -0.473380     9A     -0.454451  
      10A     -0.400061    11A     -0.389722    12A     -0.345552  
      13A     -0.295996  

    Virtual:                                                              

      14A     -0.007560    15A      0.013484    16A      0.019896  
      17A      0.026333    18A      0.049797    19A      0.055706  
      20A      0.072749    21A      0.074948    22A      0.095410  
      23A      0.103905    24A      0.114606    25A      0.118808  
      26A      0.124161    27A      0.139982    28A      0.159583  
      29A      0.172834    30A      0.182183    31A      0.183902  
      32A      0.203279    33A      0.211105    34A      0.219572  
      35A      0.239649    36A      0.257537    37A      0.280624  
      38A      0.288404    39A      0.324621    40A      0.339407  
      41A      0.345919    42A      0.353035    43A      0.368945  
      44A      0.377949    45A      0.379279    46A      0.400957  
      47A      0.411808    48A      0.422848    49A      0.451439  
      50A      0.465492    51A      0.470788    52A      0.492557  
      53A      0.502065    54A      0.509041    55A      0.521953  
      56A      0.541352    57A      0.557420    58A      0.583462  
      59A      0.594765    60A      0.612896    61A      0.623202  
      62A      0.634466    63A      0.656591    64A      0.672354  
      65A      0.695989    66A      0.741371    67A      0.769484  
      68A      0.783225    69A      0.826781    70A      0.849951  
      71A      0.894244    72A      0.925268    73A      0.984502  
      74A      1.012990    75A      1.028334    76A      1.079551  
      77A      1.087365    78A      1.120962    79A      1.182422  
      80A      1.259112    81A      1.280892    82A      1.317952  
      83A      1.356473    84A      1.466125    85A      1.519772  
      86A      1.560688    87A      1.578978    88A      1.607429  
      89A      1.646296    90A      1.668822    91A      1.681130  
      92A      1.721473    93A      1.791097    94A      1.803006  
      95A      1.850123    96A      1.860606    97A      1.909195  
      98A      1.929157    99A      1.936702   100A      1.960656  
     101A      1.970967   102A      2.044500   103A      2.058904  
     104A      2.196447   105A      2.218463   106A      2.255328  
     107A      2.315057   108A      2.351138   109A      2.403304  
     110A      2.455632   111A      2.514674   112A      2.529588  
     113A      2.585825   114A      2.695852   115A      2.724704  
     116A      2.752126   117A      2.791598   118A      2.967274  
     119A      3.400823   120A      3.413415   121A      3.467172  
     122A      3.550800   123A      3.915870  

    Final Occupation by Irrep:
              A 
    DOCC [    13 ]

  @DF-RKS Final Energy:  -155.24152770721369

   => Energetics <=

    Nuclear Repulsion Energy =             81.8956710703068751
    One-Electron Energy =                -371.8725510314945382
    Two-Electron Energy =                 150.8143394204151946
    DFT Exchange-Correlation Energy =     -16.0789871664412338
    Empirical Dispersion Energy =           0.0000000000000000
    VV10 Nonlocal Energy =                  0.0000000000000000
    Total Energy =                       -155.2415277072136917

Computation Completed


Properties will be evaluated at   0.000000,   0.000000,   0.000000 [a0]

Properties computed using the PW6B95 density matrix

  Nuclear Dipole Moment: [e a0]
     X:    73.8562      Y:    29.8747      Z:   -34.9278

  Electronic Dipole Moment: [e a0]
     X:   -73.6827      Y:   -30.4950      Z:    35.1001

  Dipole Moment: [e a0]
     X:     0.1734      Y:    -0.6203      Z:     0.1723     Total:     0.6667

  Dipole Moment: [D]
     X:     0.4408      Y:    -1.5767      Z:     0.4379     Total:     1.6947


 Field computed on the grid and written to grid_field.dat

 Electrostatic potential computed on the grid and written to grid_esp.dat

*** tstop() called on michael-HP at Tue Jul 23 17:24:20 2019
Module time:
	user time   =      39.80 seconds =       0.66 minutes
	system time =       0.80 seconds =       0.01 minutes
	total time  =         41 seconds =       0.68 minutes
Total time:
	user time   =      39.80 seconds =       0.66 minutes
	system time =       0.80 seconds =       0.01 minutes
	total time  =         41 seconds =       0.68 minutes

    Psi4 stopped on: Tuesday, 23 July 2019 05:24PM
    Psi4 wall time for execution: 0:00:40.72

*** Psi4 exiting successfully. Buy a developer a beer!
